/*--------------------------------*- C++ -*----------------------------------*\
| =========                 |                                                 |
| \\      /  F ield         | OpenFOAM: The Open Source CFD Toolbox           |
|  \\    /   O peration     | Version:  2312                                  |
|   \\  /    A nd           | Website:  www.openfoam.com                      |
|    \\/     M anipulation  |                                                 |
\*---------------------------------------------------------------------------*/
FoamFile
{
    version     2.0;
    format      ascii;
    arch        "LSB;label=32;scalar=64";
    class       surfaceScalarField;
    location    "0.35";
    object      alphaPhi0.water;
}
// * * * * * * * * * * * * * * * * * * * * * * * * * * * * * * * * * * * * * //

dimensions      [0 3 -1 0 0 0 0];

oriented        oriented;

internalField   nonuniform List<scalar> 
19800
(
-4.42763e-13
4.43033e-13
-1.47657e-12
1.03703e-12
-2.75342e-12
1.27566e-12
-3.77351e-12
1.02134e-12
-4.48535e-12
7.1229e-13
-5.04609e-12
5.62465e-13
-5.61392e-12
5.68515e-13
-6.27997e-12
6.66441e-13
-7.09094e-12
8.10589e-13
-8.0694e-12
9.77471e-13
-9.22949e-12
1.15946e-12
-1.05825e-11
1.3527e-12
-1.21384e-11
1.55633e-12
-1.39087e-11
1.77074e-12
-1.59033e-11
1.99512e-12
-1.81322e-11
2.22973e-12
-2.06051e-11
2.47328e-12
-2.33287e-11
2.72384e-12
-2.63082e-11
2.97977e-12
-2.95462e-11
3.23772e-12
-3.30409e-11
3.49419e-12
-3.67862e-11
3.74472e-12
-4.07711e-11
3.98377e-12
-4.49782e-11
4.20576e-12
-4.93838e-11
4.40427e-12
-5.39572e-11
4.57175e-12
-5.86598e-11
4.70079e-12
-6.34452e-11
4.78429e-12
-6.826e-11
4.81466e-12
-7.30434e-11
4.78388e-12
-7.7727e-11
4.68455e-12
-8.22351e-11
4.50914e-12
-8.64888e-11
4.25383e-12
-9.04019e-11
3.91234e-12
-9.38846e-11
3.4817e-12
-9.68505e-11
2.96527e-12
-9.92035e-11
2.35265e-12
-1.00862e-10
1.65766e-12
-1.01751e-10
8.88802e-13
-1.01786e-10
3.32246e-14
-1.0093e-10
-8.57746e-13
-9.914e-11
-1.7907e-12
-9.63937e-11
-2.74603e-12
-9.26929e-11
-3.69997e-12
-8.80679e-11
-4.62464e-12
-8.2565e-11
-5.50284e-12
-7.62632e-11
-6.30109e-12
-6.92647e-11
-6.99725e-12
-6.16947e-11
-7.56889e-12
-5.36961e-11
-7.99745e-12
-4.54249e-11
-8.26992e-12
-3.70471e-11
-8.37672e-12
-2.87309e-11
-8.31512e-12
-2.06417e-11
-8.08859e-12
-1.29387e-11
-7.70282e-12
-5.75986e-12
-7.17875e-12
7.72232e-13
-6.53227e-12
6.56042e-12
-5.78814e-12
1.15288e-11
-4.96782e-12
1.56274e-11
-4.09757e-12
1.88337e-11
-3.20531e-12
2.11495e-11
-2.31601e-12
2.26035e-11
-1.45434e-12
2.32415e-11
-6.38103e-13
2.31067e-11
1.35179e-13
2.23015e-11
8.05871e-13
2.09001e-11
1.40173e-12
1.89935e-11
1.90665e-12
1.66761e-11
2.31756e-12
1.40424e-11
2.63403e-12
1.11843e-11
2.85833e-12
8.19016e-12
2.99509e-12
5.14075e-12
3.05087e-12
2.10938e-12
3.03239e-12
-8.3849e-13
2.94746e-12
-3.65302e-12
2.81221e-12
-6.27772e-12
2.62412e-12
-8.68334e-12
2.40481e-12
-1.08342e-11
2.15024e-12
-1.27087e-11
1.87518e-12
-1.42902e-11
1.58114e-12
-1.55777e-11
1.28805e-12
-1.65677e-11
9.87615e-13
-1.7258e-11
6.92478e-13
-1.76643e-11
4.05322e-13
-1.77963e-11
1.3147e-13
-1.76624e-11
-1.34975e-13
-1.72666e-11
-3.95719e-13
-1.66276e-11
-6.40192e-13
-1.57667e-11
-8.61514e-13
-1.4701e-11
-1.0674e-12
-1.34487e-11
-1.25228e-12
-1.20365e-11
-1.41085e-12
-1.0489e-11
-1.54705e-12
-8.83077e-12
-1.65954e-12
-7.08573e-12
-1.7453e-12
-5.27967e-12
-1.80689e-12
-3.46182e-12
-1.81929e-12
-1.67249e-12
-1.7875e-12
-1.67459e-12
8.33176e-14
3.63073e-13
-4.09424e-13
1.5281e-12
-1.66553e-12
2.53394e-12
-3.04065e-12
2.39845e-12
-4.19505e-12
1.87021e-12
-5.16725e-12
1.53594e-12
-6.10091e-12
1.50269e-12
-7.11828e-12
1.6834e-12
-8.3007e-12
1.99206e-12
-9.70195e-12
2.37814e-12
-1.13587e-11
2.8154e-12
-1.32992e-11
3.29322e-12
-1.55498e-11
3.8074e-12
-1.8131e-11
4.35291e-12
-2.10631e-11
4.92896e-12
-2.43645e-11
5.53204e-12
-2.80499e-11
6.1588e-12
-3.21315e-11
6.80497e-12
-3.66166e-11
7.46369e-12
-4.15073e-11
8.12708e-12
-4.67996e-11
8.78539e-12
-5.24826e-11
9.42604e-12
-5.85358e-11
1.00352e-11
-6.49294e-11
1.05975e-11
-7.1623e-11
1.10954e-11
-7.85642e-11
1.15104e-11
-8.56881e-11
1.18233e-11
-9.29177e-11
1.20138e-11
-1.00164e-10
1.20615e-11
-1.07325e-10
1.19459e-11
-1.14287e-10
1.16477e-11
-1.20927e-10
1.1149e-11
-1.27109e-10
1.04346e-11
-1.32694e-10
9.4953e-12
-1.37535e-10
8.32156e-12
-1.41483e-10
6.91286e-12
-1.44395e-10
5.26334e-12
-1.4614e-10
3.40128e-12
-1.46586e-10
1.33316e-12
-1.45637e-10
-9.17227e-13
-1.43192e-10
-3.30437e-12
-1.39197e-10
-5.78427e-12
-1.33635e-10
-8.30732e-12
-1.26521e-10
-1.08143e-11
-1.17911e-10
-1.32333e-11
-1.07897e-10
-1.55168e-11
-9.66187e-11
-1.75773e-11
-8.42558e-11
-1.93579e-11
-7.10244e-11
-2.07985e-11
-5.71675e-11
-2.18528e-11
-4.29531e-11
-2.24824e-11
-2.866e-11
-2.26683e-11
-1.45696e-11
-2.24048e-11
-9.54644e-13
-2.17034e-11
1.19196e-11
-2.05777e-11
2.38296e-11
-1.90888e-11
3.45751e-11
-1.72771e-11
4.39975e-11
-1.52092e-11
5.19761e-11
-1.29449e-11
5.84385e-11
-1.05591e-11
6.33556e-11
-8.12187e-12
6.67384e-11
-5.69965e-12
6.86317e-11
-3.34825e-12
6.91178e-11
-1.12355e-12
6.83226e-11
9.31461e-13
6.6353e-11
2.7757e-12
6.33638e-11
4.39069e-12
5.95103e-11
5.76069e-12
5.49512e-11
6.8776e-12
4.98458e-11
7.74072e-12
4.43478e-11
8.35736e-12
3.86047e-11
8.73981e-12
3.27513e-11
8.90506e-12
2.69085e-11
8.87348e-12
2.11862e-11
8.66862e-12
1.56816e-11
8.31474e-12
1.04698e-11
7.83532e-12
5.62029e-12
7.25408e-12
1.17812e-12
6.59155e-12
-2.81648e-12
5.87026e-12
-6.34532e-12
5.10724e-12
-9.38603e-12
4.32848e-12
-1.1939e-11
3.53841e-12
-1.40034e-11
2.75747e-12
-1.55944e-11
1.99562e-12
-1.67179e-11
1.25484e-12
-1.73976e-11
5.42447e-13
-1.76563e-11
-1.39089e-13
-1.75186e-11
-7.79641e-13
-1.70031e-11
-1.37623e-12
-1.6146e-11
-1.92236e-12
-1.49805e-11
-2.41655e-12
-1.3548e-11
-2.84728e-12
-1.18809e-11
-3.21386e-12
-1.00283e-11
-3.51415e-12
-8.02253e-12
-3.74855e-12
-5.92895e-12
-3.89787e-12
-3.83379e-12
-3.91592e-12
-1.81134e-12
-3.8043e-12
-3.48735e-12
3.95015e-13
-3.31359e-14
7.09642e-13
1.21487e-12
2.86437e-13
2.957e-12
-6.69078e-13
3.35622e-12
-1.79903e-12
3.0011e-12
-2.94622e-12
2.68376e-12
-4.11354e-12
2.66979e-12
-5.36438e-12
2.93322e-12
-6.76628e-12
3.39326e-12
-8.37867e-12
3.98971e-12
-1.025e-11
4.68642e-12
-1.24215e-11
5.46422e-12
-1.49271e-11
6.31262e-12
-1.77971e-11
7.22358e-12
-2.10598e-11
8.19229e-12
-2.47379e-11
9.21052e-12
-2.88488e-11
1.02701e-11
-3.34082e-11
1.1364e-11
-3.84243e-11
1.24793e-11
-4.38985e-11
1.36009e-11
-4.9827e-11
1.47132e-11
-5.61967e-11
1.57947e-11
-6.29848e-11
1.68222e-11
-7.01585e-11
1.77696e-11
-7.7673e-11
1.86079e-11
-8.54704e-11
1.93065e-11
-9.348e-11
1.98325e-11
-1.01618e-10
2.01513e-11
-1.09784e-10
2.02281e-11
-1.17867e-10
2.00287e-11
-1.25739e-10
1.95195e-11
-1.33262e-10
1.86707e-11
-1.40286e-10
1.74564e-11
-1.46649e-10
1.58577e-11
-1.52185e-10
1.3857e-11
-1.56725e-10
1.14527e-11
-1.60109e-10
8.64708e-12
-1.62172e-10
5.46413e-12
-1.62779e-10
1.93977e-12
-1.6179e-10
-1.90705e-12
-1.59108e-10
-5.98598e-12
-1.54665e-10
-1.02271e-11
-1.48432e-10
-1.45411e-11
-1.40422e-10
-1.88246e-11
-1.30689e-10
-2.29666e-11
-1.19359e-10
-2.68462e-11
-1.06574e-10
-3.03614e-11
-9.25454e-11
-3.33857e-11
-7.75188e-11
-3.58242e-11
-6.17785e-11
-3.75923e-11
-4.56329e-11
-3.8627e-11
-2.9405e-11
-3.88962e-11
-1.34223e-11
-3.83883e-11
1.99457e-12
-3.71212e-11
1.65701e-11
-3.51536e-11
3.00185e-11
-3.25365e-11
4.21158e-11
-2.93729e-11
5.26806e-11
-2.57725e-11
6.15874e-11
-2.1851e-11
6.87539e-11
-1.77264e-11
7.41511e-11
-1.35198e-11
7.77973e-11
-9.3463e-12
7.97524e-11
-5.30336e-12
8.01155e-11
-1.48656e-12
7.90217e-11
2.02512e-12
7.6617e-11
5.17985e-12
7.30703e-11
7.93761e-12
6.85621e-11
1.02705e-11
6.32729e-11
1.21681e-11
5.73843e-11
1.36302e-11
5.10695e-11
1.46719e-11
4.44952e-11
1.53143e-11
3.78114e-11
1.55892e-11
3.11549e-11
1.55288e-11
2.46485e-11
1.51754e-11
1.83964e-11
1.45672e-11
1.24838e-11
1.37456e-11
6.98504e-12
1.27507e-11
1.95202e-12
1.16227e-11
-2.56969e-12
1.03899e-11
-6.55788e-12
9.09353e-12
-9.99501e-12
7.76431e-12
-1.28754e-11
6.41872e-12
-1.52046e-11
5.085e-12
-1.69891e-11
3.77877e-12
-1.82503e-11
2.51657e-12
-1.90079e-11
1.30185e-12
-1.92949e-11
1.49665e-13
-1.914e-11
-9.33654e-13
-1.85776e-11
-1.94076e-12
-1.76425e-11
-2.86043e-12
-1.63721e-11
-3.68569e-12
-1.48105e-11
-4.4107e-12
-1.29899e-11
-5.03041e-12
-1.09598e-11
-5.54504e-12
-8.75382e-12
-5.94801e-12
-6.4453e-12
-6.20995e-12
-4.12354e-12
-6.23355e-12
-1.92364e-12
-6.00158e-12
-5.40923e-12
1.38922e-13
-1.71291e-13
6.1501e-13
7.39141e-13
7.59718e-13
2.81378e-12
3.69642e-13
3.74665e-12
-4.02856e-13
3.77392e-12
-1.38922e-12
3.67017e-12
-2.51356e-12
3.79358e-12
-3.77922e-12
4.19828e-12
-5.21879e-12
4.83158e-12
-6.87906e-12
5.64894e-12
-8.80214e-12
6.60846e-12
-1.10312e-11
7.69239e-12
-1.3603e-11
8.88464e-12
-1.65524e-11
1.01735e-11
-1.99103e-11
1.15503e-11
-2.37021e-11
1.30024e-11
-2.79514e-11
1.4519e-11
-3.26716e-11
1.60838e-11
-3.78738e-11
1.76816e-11
-4.35635e-11
1.92909e-11
-4.97367e-11
2.08862e-11
-5.63812e-11
2.2439e-11
-6.34761e-11
2.39164e-11
-7.0989e-11
2.52813e-11
-7.88755e-11
2.64935e-11
-8.70785e-11
2.75093e-11
-9.55276e-11
2.82813e-11
-1.04137e-10
2.87605e-11
-1.12807e-10
2.88969e-11
-1.2142e-10
2.86409e-11
-1.29846e-10
2.79441e-11
-1.37939e-10
2.67621e-11
-1.45539e-10
2.50555e-11
-1.52476e-10
2.2794e-11
-1.58575e-10
1.99553e-11
-1.63648e-10
1.65274e-11
-1.67519e-10
1.25193e-11
-1.70014e-10
7.95974e-12
-1.70961e-10
2.88687e-12
-1.70226e-10
-2.64308e-12
-1.67682e-10
-8.53026e-12
-1.63249e-10
-1.46616e-11
-1.56883e-10
-2.09076e-11
-1.4859e-10
-2.71187e-11
-1.38429e-10
-3.3128e-11
-1.26504e-10
-3.87704e-11
-1.12996e-10
-4.38695e-11
-9.81163e-11
-4.82659e-11
-8.21338e-11
-5.18062e-11
-6.53597e-11
-5.43662e-11
-4.8134e-11
-5.58532e-11
-3.08137e-11
-5.6218e-11
-1.37585e-11
-5.54454e-11
2.68469e-12
-5.3565e-11
1.81826e-11
-5.0651e-11
3.24509e-11
-4.68035e-11
4.52426e-11
-4.21635e-11
5.63603e-11
-3.68897e-11
6.56682e-11
-3.11588e-11
7.30862e-11
-2.51456e-11
7.85917e-11
-1.90262e-11
8.2212e-11
-1.29669e-11
8.40223e-11
-7.11399e-12
8.41372e-11
-1.60233e-12
8.27121e-11
3.44963e-12
7.99102e-11
7.98247e-12
7.59185e-11
1.1931e-11
7.09338e-11
1.52566e-11
6.51531e-11
1.79481e-11
5.87732e-11
2.00102e-11
5.198e-11
2.14652e-11
4.49467e-11
2.2348e-11
3.78345e-11
2.27029e-11
3.07849e-11
2.25792e-11
2.39218e-11
2.20372e-11
1.73557e-11
2.11318e-11
1.11724e-11
1.99261e-11
5.44516e-12
1.84767e-11
2.30743e-13
1.6837e-11
-4.4329e-12
1.50515e-11
-8.52764e-12
1.31875e-11
-1.20285e-11
1.12638e-11
-1.49381e-11
9.32731e-12
-1.72596e-11
7.40711e-12
-1.90073e-11
5.53062e-12
-2.02015e-11
3.71222e-12
-2.08752e-11
1.9773e-12
-2.10581e-11
3.30924e-13
-2.0784e-11
-1.21025e-12
-2.00918e-11
-2.63327e-12
-1.90195e-11
-3.93235e-12
-1.76073e-11
-5.09613e-12
-1.58981e-11
-6.12275e-12
-1.39242e-11
-7.0023e-12
-1.17325e-11
-7.73807e-12
-9.35812e-12
-8.31784e-12
-6.87374e-12
-8.69885e-12
-4.37646e-12
-8.73114e-12
-2.01676e-12
-8.35911e-12
-7.42583e-12
-1.74406e-13
2.48432e-15
9.4954e-14
4.71006e-13
4.21115e-13
2.48718e-12
4.23809e-13
3.74363e-12
4.10997e-14
4.15603e-12
-6.41838e-13
4.3523e-12
-1.55541e-12
4.70685e-12
-2.66442e-12
5.30655e-12
-3.99129e-12
6.15746e-12
-5.55778e-12
7.21393e-12
-7.40702e-12
8.45606e-12
-9.57331e-12
9.85825e-12
-1.20929e-11
1.14046e-11
-1.50028e-11
1.30837e-11
-1.83337e-11
1.48815e-11
-2.21145e-11
1.6783e-11
-2.63673e-11
1.87712e-11
-3.11133e-11
2.08299e-11
-3.63655e-11
2.29343e-11
-4.21307e-11
2.50564e-11
-4.84095e-11
2.71652e-11
-5.51934e-11
2.92227e-11
-6.24641e-11
3.11865e-11
-7.01923e-11
3.30091e-11
-7.83366e-11
3.46379e-11
-8.68427e-11
3.60155e-11
-9.56421e-11
3.70801e-11
-1.0465e-10
3.77673e-11
-1.13765e-10
3.8011e-11
-1.2287e-10
3.77442e-11
-1.31829e-10
3.69022e-11
-1.40491e-10
3.54232e-11
-1.4869e-10
3.32526e-11
-1.56242e-10
3.0346e-11
-1.62959e-10
2.66727e-11
-1.68642e-10
2.22125e-11
-1.73092e-10
1.69714e-11
-1.7611e-10
1.09786e-11
-1.77523e-10
4.29947e-12
-1.77147e-10
-3.02024e-12
-1.74847e-10
-1.0832e-11
-1.70518e-10
-1.89915e-11
-1.641e-10
-2.73259e-11
-1.55586e-10
-3.56334e-11
-1.45024e-10
-4.36903e-11
-1.32533e-10
-5.12613e-11
-1.18273e-10
-5.813e-11
-1.02498e-10
-6.40412e-11
-8.54921e-11
-6.88121e-11
-6.76025e-11
-7.22567e-11
-4.92041e-11
-7.42533e-11
-3.06972e-11
-7.47268e-11
-1.24842e-11
-7.36599e-11
5.04512e-12
-7.10945e-11
2.15254e-11
-6.71307e-11
3.66365e-11
-6.1914e-11
5.01077e-11
-5.56345e-11
6.17356e-11
-4.85176e-11
7.13727e-11
-4.07958e-11
7.89371e-11
-3.27109e-11
8.44222e-11
-2.45125e-11
8.78696e-11
-1.64151e-11
8.93727e-11
-8.61731e-12
8.90707e-11
-1.30055e-12
8.71342e-11
5.38622e-12
8.37611e-11
1.13569e-11
7.91614e-11
1.65317e-11
7.35495e-11
2.08687e-11
6.71438e-11
2.43524e-11
6.0157e-11
2.69984e-11
5.27888e-11
2.88359e-11
4.52213e-11
2.99163e-11
3.76228e-11
3.03007e-11
3.01419e-11
3.00604e-11
2.29055e-11
2.92716e-11
1.60206e-11
2.80164e-11
9.57804e-12
2.63694e-11
3.64744e-12
2.44096e-11
-1.71962e-12
2.22041e-11
-6.49892e-12
1.98306e-11
-1.06524e-11
1.73404e-11
-1.41765e-11
1.47884e-11
-1.70744e-11
1.22266e-11
-1.93555e-11
9.68767e-12
-2.10335e-11
7.20995e-12
-2.21451e-11
4.82368e-12
-2.27127e-11
2.54505e-12
-2.27746e-11
3.9208e-13
-2.23681e-11
-1.61429e-12
-2.15391e-11
-3.46439e-12
-2.03227e-11
-5.14964e-12
-1.8763e-11
-6.65544e-12
-1.6898e-11
-7.98582e-12
-1.47708e-11
-9.13032e-12
-1.24192e-11
-1.00894e-11
-9.88908e-12
-1.08486e-11
-7.24101e-12
-1.13452e-11
-4.59046e-12
-1.13808e-11
-2.09363e-12
-1.0851e-11
-9.52184e-12
-3.29194e-13
3.31833e-13
-2.41337e-13
3.8194e-13
1.06396e-13
2.13845e-12
3.24271e-13
3.52479e-12
2.44523e-13
4.23452e-12
-1.37587e-13
4.7336e-12
-7.80355e-13
5.34879e-12
-1.67099e-12
6.19661e-12
-2.80603e-12
7.29156e-12
-4.20803e-12
8.61441e-12
-5.90378e-12
1.0151e-11
-7.93754e-12
1.1892e-11
-1.03396e-11
1.38068e-11
-1.31442e-11
1.58887e-11
-1.63844e-11
1.81217e-11
-2.0091e-11
2.04891e-11
-2.4292e-11
2.29722e-11
-2.90091e-11
2.55474e-11
-3.42591e-11
2.81846e-11
-4.00552e-11
3.08528e-11
-4.64027e-11
3.35127e-11
-5.32972e-11
3.61169e-11
-6.07256e-11
3.86145e-11
-6.8663e-11
4.0947e-11
-7.70732e-11
4.30487e-11
-8.59059e-11
4.48481e-11
-9.50949e-11
4.62686e-11
-1.04557e-10
4.7229e-11
-1.14192e-10
4.76452e-11
-1.2388e-10
4.74314e-11
-1.33483e-10
4.65033e-11
-1.42841e-10
4.478e-11
-1.51778e-10
4.21886e-11
-1.601e-10
3.86671e-11
-1.67601e-10
3.41754e-11
-1.74063e-10
2.86767e-11
-1.79261e-10
2.21712e-11
-1.82975e-10
1.46918e-11
-1.84985e-10
6.30889e-12
-1.85105e-10
-2.90201e-12
-1.83147e-10
-1.27901e-11
-1.78985e-10
-2.31544e-11
-1.72533e-10
-3.37784e-11
-1.63764e-10
-4.44022e-11
-1.52715e-10
-5.47398e-11
-1.39492e-10
-6.44847e-11
-1.243e-10
-7.33212e-11
-1.07373e-10
-8.09689e-11
-8.90629e-11
-8.71231e-11
-6.97332e-11
-9.15878e-11
-4.98237e-11
-9.41645e-11
-2.9787e-11
-9.47649e-11
-1.00842e-11
-9.33639e-11
8.8388e-12
-9.00185e-11
2.6568e-11
-8.48604e-11
4.27416e-11
-7.80874e-11
5.7061e-11
-6.99532e-11
6.9296e-11
-6.07526e-11
7.92965e-11
-5.07967e-11
8.70007e-11
-4.04162e-11
9.23987e-11
-2.99115e-11
9.55586e-11
-1.95753e-11
9.66026e-11
-9.66071e-12
9.5692e-11
-3.89259e-13
9.30527e-11
8.02548e-12
8.88981e-11
1.55118e-11
8.34712e-11
2.19582e-11
7.70199e-11
2.73207e-11
6.97836e-11
3.15892e-11
6.19971e-11
3.47866e-11
5.38756e-11
3.69587e-11
4.56163e-11
3.81757e-11
3.73946e-11
3.85212e-11
2.9365e-11
3.80909e-11
2.16568e-11
3.69808e-11
1.43815e-11
3.52944e-11
7.61885e-12
3.31336e-11
1.43927e-12
3.05916e-11
-4.11239e-12
2.77549e-11
-9.00506e-12
2.47242e-11
-1.32222e-11
2.1559e-11
-1.67663e-11
1.83321e-11
-1.96385e-11
1.50974e-11
-2.18602e-11
1.19072e-11
-2.34556e-11
8.80339e-12
-2.44528e-11
5.82014e-12
-2.48895e-11
2.98337e-12
-2.48029e-11
3.04308e-13
-2.42394e-11
-2.17816e-12
-2.32421e-11
-4.4629e-12
-2.185e-11
-6.53776e-12
-2.01121e-11
-8.39751e-12
-1.80619e-11
-1.00309e-11
-1.57504e-11
-1.14433e-11
-1.32113e-11
-1.26248e-11
-1.04964e-11
-1.35632e-11
-7.65986e-12
-1.41744e-11
-4.82837e-12
-1.42113e-11
-2.18058e-12
-1.3495e-11
-1.17022e-11
-3.23688e-13
6.54476e-13
-2.84272e-13
3.40975e-13
9.07661e-14
1.76177e-12
4.50741e-13
3.16328e-12
5.99686e-13
4.08471e-12
4.83002e-13
4.84928e-12
1.00941e-13
5.73014e-12
-5.43141e-13
6.83995e-12
-1.44835e-12
8.19569e-12
-2.64166e-12
9.80723e-12
-4.15428e-12
1.16637e-11
-6.00403e-12
1.37419e-11
-8.24144e-12
1.60445e-11
-1.08982e-11
1.85454e-11
-1.4008e-11
2.12311e-11
-1.76048e-11
2.40857e-11
-2.17183e-11
2.70859e-11
-2.63756e-11
3.02049e-11
-3.16022e-11
3.34114e-11
-3.7414e-11
3.66647e-11
-4.3822e-11
3.99206e-11
-5.08288e-11
4.31235e-11
-5.84279e-11
4.6214e-11
-6.66012e-11
4.91209e-11
-7.53183e-11
5.17662e-11
-8.45338e-11
5.40637e-11
-9.41858e-11
5.59207e-11
-1.04194e-10
5.72377e-11
-1.1446e-10
5.79106e-11
-1.24862e-10
5.78326e-11
-1.35258e-10
5.68971e-11
-1.45481e-10
5.5001e-11
-1.55343e-10
5.20494e-11
-1.64634e-10
4.79597e-11
-1.73126e-10
4.2669e-11
-1.8058e-10
3.61313e-11
-1.86742e-10
2.83332e-11
-1.91357e-10
1.93061e-11
-1.94161e-10
9.11191e-12
-1.94942e-10
-2.12238e-12
-1.93455e-10
-1.42779e-11
-1.89541e-10
-2.70687e-11
-1.83081e-10
-4.02382e-11
-1.74019e-10
-5.34637e-11
-1.62376e-10
-6.63823e-11
-1.48262e-10
-7.85987e-11
-1.31868e-10
-8.97151e-11
-1.1349e-10
-9.93472e-11
-9.34779e-11
-1.07136e-10
-7.23055e-11
-1.12761e-10
-5.04472e-11
-1.16024e-10
-2.84366e-11
-1.16777e-10
-6.81403e-12
-1.14988e-10
1.39002e-11
-1.10734e-10
3.32272e-11
-1.04188e-10
5.075e-11
-9.56098e-11
6.61313e-11
-8.53336e-11
7.91181e-11
-7.37398e-11
8.95619e-11
-6.12419e-11
9.73911e-11
-4.82465e-11
1.02631e-10
-3.51509e-11
1.05376e-10
-2.23209e-11
1.05787e-10
-1.00715e-11
1.04084e-10
1.31381e-12
1.00506e-10
1.16033e-11
9.53282e-11
2.06898e-11
8.88306e-11
2.84558e-11
8.12966e-11
3.48555e-11
7.29991e-11
3.98878e-11
6.41964e-11
4.35895e-11
5.51242e-11
4.60303e-11
4.59976e-11
4.73035e-11
3.70016e-11
4.75189e-11
2.82949e-11
4.67984e-11
2.00108e-11
4.52664e-11
1.22566e-11
4.30509e-11
5.11333e-12
4.02773e-11
-1.35584e-12
3.70609e-11
-7.11907e-12
3.35192e-11
-1.21473e-11
2.9751e-11
-1.6435e-11
2.58437e-11
-1.99856e-11
2.1881e-11
-2.28202e-11
1.79295e-11
-2.49592e-11
1.40457e-11
-2.64345e-11
1.02804e-11
-2.72853e-11
6.67016e-12
-2.75528e-11
3.24852e-12
-2.72814e-11
3.35697e-14
-2.65198e-11
-2.93804e-12
-2.5314e-11
-5.66905e-12
-2.37072e-11
-8.14156e-12
-2.17484e-11
-1.03562e-11
-1.94755e-11
-1.23009e-11
-1.69351e-11
-1.39792e-11
-1.41727e-11
-1.53868e-11
-1.12325e-11
-1.65057e-11
-8.17632e-12
-1.72306e-11
-5.13071e-12
-1.72561e-11
-2.29313e-12
-1.63356e-11
-1.39986e-11
-2.29842e-13
8.83218e-13
-1.02498e-13
2.12138e-13
3.52766e-13
1.30474e-12
8.54763e-13
2.66015e-12
1.20695e-12
3.73156e-12
1.33345e-12
4.72229e-12
1.21146e-12
5.85159e-12
8.30635e-13
7.21994e-12
1.70376e-13
8.85573e-12
-7.89561e-13
1.07674e-11
-2.07054e-12
1.29448e-11
-3.71367e-12
1.53852e-11
-5.74636e-12
1.80772e-11
-8.2166e-12
2.10153e-11
-1.11604e-11
2.41747e-11
-1.46122e-11
2.75376e-11
-1.86093e-11
3.10829e-11
-2.31844e-11
3.47798e-11
-2.83649e-11
3.8592e-11
-3.41789e-11
4.24786e-11
-4.06419e-11
4.63832e-11
-4.77661e-11
5.02478e-11
-5.55524e-11
5.40007e-11
-6.39911e-11
5.75598e-11
-7.3059e-11
6.08343e-11
-8.27177e-11
6.37228e-11
-9.29115e-11
6.6115e-11
-1.03565e-10
6.78916e-11
-1.14581e-10
6.89265e-11
-1.25839e-10
6.90891e-11
-1.37192e-10
6.82475e-11
-1.48465e-10
6.62728e-11
-1.59458e-10
6.3042e-11
-1.69943e-10
5.84465e-11
-1.7967e-10
5.23963e-11
-1.88368e-10
4.48292e-11
-1.95746e-10
3.571e-11
-2.015e-10
2.50585e-11
-2.05329e-10
1.29402e-11
-2.06994e-10
-4.5811e-13
-2.06137e-10
-1.51359e-11
-2.02586e-10
-3.06194e-11
-1.9617e-10
-4.66539e-11
-1.86794e-10
-6.2839e-11
-1.74454e-10
-7.8721e-11
-1.59248e-10
-9.38051e-11
-1.41385e-10
-1.07578e-10
-1.21177e-10
-1.19556e-10
-9.90572e-11
-1.29256e-10
-7.55331e-11
-1.36286e-10
-5.12017e-11
-1.40357e-10
-2.66894e-11
-1.41291e-10
-2.63519e-12
-1.39044e-10
2.03405e-11
-1.33711e-10
4.1673e-11
-1.25521e-10
6.08813e-11
-1.14818e-10
7.7568e-11
-1.02021e-10
9.14674e-11
-8.76405e-11
1.02411e-10
-7.21869e-11
1.10352e-10
-5.61878e-11
1.15339e-10
-4.01381e-11
1.17513e-10
-2.44948e-11
1.17086e-10
-9.64545e-12
1.1434e-10
4.05935e-12
1.09561e-10
1.63837e-11
1.03079e-10
2.71715e-11
9.52326e-11
3.63025e-11
8.63438e-11
4.37436e-11
7.67287e-11
4.95035e-11
6.66737e-11
5.36453e-11
5.64402e-11
5.62647e-11
4.6259e-11
5.74858e-11
3.6329e-11
5.7451e-11
2.6812e-11
5.63134e-11
1.78442e-11
5.42335e-11
9.52901e-12
5.13665e-11
1.94318e-12
4.78648e-11
-4.85356e-12
4.38563e-11
-1.08447e-11
3.95092e-11
-1.60155e-11
3.49199e-11
-2.03694e-11
3.01955e-11
-2.39173e-11
2.54285e-11
-2.66867e-11
2.06988e-11
-2.871e-11
1.60691e-11
-3.00334e-11
1.16014e-11
-3.06983e-11
7.33483e-12
-3.07549e-11
3.3055e-12
-3.0252e-11
-4.67652e-13
-2.92475e-11
-3.94186e-12
-2.77857e-11
-7.12842e-12
-2.59191e-11
-1.00117e-11
-2.3691e-11
-1.258e-11
-2.1153e-11
-1.48397e-11
-1.83447e-11
-1.67848e-11
-1.53181e-11
-1.84152e-11
-1.2111e-11
-1.97098e-11
-8.79329e-12
-2.05481e-11
-5.48546e-12
-2.05594e-11
-2.4228e-12
-1.93993e-11
-1.6419e-11
-7.93285e-14
9.61334e-13
2.05336e-13
-7.32457e-14
8.11888e-13
6.97743e-13
1.48665e-12
1.98442e-12
2.05671e-12
3.16096e-12
2.43071e-12
4.348e-12
2.57512e-12
5.70679e-12
2.46809e-12
7.32717e-12
2.08398e-12
9.24035e-12
1.39733e-12
1.14542e-11
3.72586e-13
1.39696e-11
-1.02511e-12
1.67827e-11
-2.82946e-12
1.98812e-11
-5.07336e-12
2.32591e-11
-7.80753e-12
2.6909e-11
-1.108e-11
3.08098e-11
-1.49268e-11
3.49292e-11
-1.93879e-11
3.92408e-11
-2.45013e-11
4.37053e-11
-3.02974e-11
4.82745e-11
-3.68054e-11
5.28912e-11
-4.40455e-11
5.74879e-11
-5.20291e-11
6.19841e-11
-6.07565e-11
6.62869e-11
-7.02138e-11
7.02918e-11
-8.03721e-11
7.38817e-11
-9.11837e-11
7.69273e-11
-1.0258e-10
7.92882e-11
-1.14468e-10
8.08141e-11
-1.26729e-10
8.13479e-11
-1.39211e-10
8.07282e-11
-1.51734e-10
7.87947e-11
-1.64083e-10
7.5392e-11
-1.76013e-10
7.0377e-11
-1.87244e-10
6.36265e-11
-1.97474e-10
5.50585e-11
-2.06362e-10
4.45966e-11
-2.13565e-10
3.22599e-11
-2.18731e-10
1.81052e-11
-2.21462e-10
2.27084e-12
-2.21482e-10
-1.51165e-11
-2.18462e-10
-3.3639e-11
-2.1218e-10
-5.29354e-11
-2.0249e-10
-7.25281e-11
-1.89351e-10
-9.1859e-11
-1.72843e-10
-1.10313e-10
-1.53183e-10
-1.27237e-10
-1.30738e-10
-1.42001e-10
-1.05992e-10
-1.54003e-10
-7.95539e-11
-1.62725e-10
-5.21329e-11
-1.6778e-10
-2.44893e-11
-1.68937e-10
2.60065e-12
-1.66135e-10
2.83971e-11
-1.59508e-10
5.22149e-11
-1.49339e-10
7.34793e-11
-1.36083e-10
9.17585e-11
-1.20301e-10
1.06729e-10
-1.02612e-10
1.18228e-10
-8.36874e-11
1.26233e-10
-6.41939e-11
1.30836e-10
-4.47425e-11
1.32232e-10
-2.58911e-11
1.30706e-10
-8.11888e-12
1.26612e-10
8.15502e-12
1.2031e-10
2.26867e-11
1.12202e-10
3.52787e-11
1.02681e-10
4.58234e-11
9.21307e-11
5.4293e-11
8.09085e-11
6.07263e-11
6.93405e-11
6.52147e-11
5.77163e-11
6.78902e-11
4.62813e-11
6.8919e-11
3.52501e-11
6.84814e-11
2.47892e-11
6.67737e-11
1.50353e-11
6.3989e-11
6.08282e-12
6.03183e-11
-1.99082e-12
5.59377e-11
-9.16605e-12
5.10302e-11
-1.54077e-11
4.57507e-11
-2.07156e-11
4.02283e-11
-2.51097e-11
3.45918e-11
-2.86208e-11
2.89396e-11
-3.12874e-11
2.3363e-11
-3.31598e-11
1.79413e-11
-3.42842e-11
1.27263e-11
-3.47164e-11
7.767e-12
-3.4517e-11
3.10192e-12
-3.3733e-11
-1.25322e-12
-3.24311e-11
-5.24765e-12
-3.06621e-11
-8.89437e-12
-2.84879e-11
-1.21903e-11
-2.59493e-11
-1.51202e-11
-2.30983e-11
-1.76897e-11
-1.99805e-11
-1.98983e-11
-1.66455e-11
-2.17501e-11
-1.31347e-11
-2.32176e-11
-9.51648e-12
-2.41634e-11
-5.9174e-12
-2.41538e-11
-2.57626e-12
-2.27423e-11
-1.89985e-11
8.84783e-14
8.71971e-13
5.97839e-13
-5.81704e-13
1.40953e-12
-1.13561e-13
2.3039e-12
1.09012e-12
3.11484e-12
2.34971e-12
3.76079e-12
3.70178e-12
4.19231e-12
5.27592e-12
4.38159e-12
7.13885e-12
4.29874e-12
9.32365e-12
3.91212e-12
1.18409e-11
3.18668e-12
1.46947e-11
2.08442e-12
1.78845e-11
5.59619e-13
2.1406e-11
-1.43237e-12
2.52515e-11
-3.93094e-12
2.94074e-11
-6.9791e-12
3.38574e-11
-1.06322e-11
3.85819e-11
-1.4943e-11
4.35512e-11
-1.99547e-11
4.87168e-11
-2.57082e-11
5.40279e-11
-3.22419e-11
5.94249e-11
-3.95878e-11
6.48333e-11
-4.77685e-11
7.01639e-11
-5.67978e-11
7.53156e-11
-6.66743e-11
8.01682e-11
-7.73811e-11
8.45887e-11
-8.88807e-11
8.84272e-11
-1.01114e-10
9.15214e-11
-1.13995e-10
9.36945e-11
-1.27408e-10
9.47591e-11
-1.412e-10
9.45204e-11
-1.55186e-10
9.27807e-11
-1.69139e-10
8.93452e-11
-1.82792e-10
8.40296e-11
-1.95838e-10
7.66711e-11
-2.07922e-10
6.71409e-11
-2.18673e-10
5.53466e-11
-2.27668e-10
4.12529e-11
-2.34472e-10
2.4908e-11
-2.38683e-10
6.47944e-12
-2.39836e-10
-1.39642e-11
-2.37565e-10
-3.59095e-11
-2.31555e-10
-5.89443e-11
-2.21587e-10
-8.24954e-11
-2.07564e-10
-1.0588e-10
-1.8954e-10
-1.28336e-10
-1.67733e-10
-1.49044e-10
-1.42562e-10
-1.67174e-10
-1.14588e-10
-1.81977e-10
-8.45407e-11
-1.92774e-10
-5.32829e-11
-1.99039e-10
-2.17519e-11
-2.00468e-10
9.11083e-12
-1.96998e-10
3.83854e-11
-1.88782e-10
6.5259e-11
-1.76213e-10
8.90404e-11
-1.59865e-10
1.09201e-10
-1.40464e-10
1.25407e-10
-1.1882e-10
1.37498e-10
-9.57799e-11
1.45479e-10
-7.21763e-11
1.49504e-10
-4.87685e-11
1.49848e-10
-2.62348e-11
1.46895e-10
-5.16397e-12
1.41081e-10
1.39706e-11
1.32871e-10
3.08987e-11
1.2274e-10
4.54078e-11
1.11168e-10
5.73963e-11
9.85991e-11
6.68622e-11
8.54473e-11
7.38774e-11
7.20789e-11
7.85828e-11
5.88126e-11
8.11564e-11
4.59178e-11
8.18125e-11
3.36141e-11
8.07839e-11
2.20755e-11
7.83126e-11
1.14327e-11
7.4634e-11
1.7696e-12
6.99809e-11
-6.83781e-12
6.45453e-11
-1.43982e-11
5.859e-11
-2.08835e-11
5.22377e-11
-2.63167e-11
4.56622e-11
-3.07281e-11
3.90036e-11
-3.41688e-11
3.23802e-11
-3.66898e-11
2.58867e-11
-3.83538e-11
1.96064e-11
-3.92246e-11
1.35967e-11
-3.93691e-11
7.91027e-12
-3.8847e-11
2.58023e-12
-3.77327e-11
-2.36504e-12
-3.6079e-11
-6.8988e-12
-3.39554e-11
-1.10203e-11
-3.14169e-11
-1.47274e-11
-2.85187e-11
-1.80191e-11
-2.53069e-11
-2.09004e-11
-2.18385e-11
-2.3371e-11
-1.81524e-11
-2.5437e-11
-1.42992e-11
-2.7072e-11
-1.03392e-11
-2.81242e-11
-6.40527e-12
-2.80903e-11
-2.75854e-12
-2.63888e-11
-2.17576e-11
2.74572e-13
5.97791e-13
1.04037e-12
-1.34613e-12
2.11404e-12
-1.18589e-12
3.27302e-12
-6.83936e-14
4.3613e-12
1.26126e-12
5.30318e-12
2.76058e-12
6.05226e-12
4.52809e-12
6.5679e-12
6.62403e-12
6.81779e-12
9.07396e-12
6.76613e-12
1.18921e-11
6.37591e-12
1.50842e-11
5.60458e-12
1.86557e-11
4.40507e-12
2.2606e-11
2.72878e-12
2.69278e-11
5.21274e-13
3.16144e-11
-2.2703e-12
3.66483e-11
-5.69544e-12
4.20064e-11
-9.80091e-12
4.76562e-11
-1.46698e-11
5.35855e-11
-2.03414e-11
5.96994e-11
-2.68694e-11
6.59525e-11
-3.42982e-11
7.22612e-11
-4.26661e-11
7.85309e-11
-5.19987e-11
8.46475e-11
-6.23132e-11
9.04821e-11
-7.36056e-11
9.58807e-11
-8.58544e-11
1.00676e-10
-9.90122e-11
1.04679e-10
-1.13004e-10
1.07686e-10
-1.27719e-10
1.09474e-10
-1.4301e-10
1.09811e-10
-1.58686e-10
1.08457e-10
-1.74509e-10
1.05168e-10
-1.90192e-10
9.97117e-11
-2.05395e-10
9.18721e-11
-2.1972e-10
8.14647e-11
-2.3274e-10
6.83654e-11
-2.43956e-10
5.24672e-11
-2.52861e-10
3.38109e-11
-2.58894e-10
1.25118e-11
-2.61579e-10
-1.12805e-11
-2.60365e-10
-3.7123e-11
-2.54839e-10
-6.44697e-11
-2.44681e-10
-9.26516e-11
-2.29716e-10
-1.20844e-10
-2.09951e-10
-1.481e-10
-1.85605e-10
-1.73389e-10
-1.5713e-10
-1.95649e-10
-1.25196e-10
-2.13912e-10
-9.07115e-11
-2.27259e-10
-5.4713e-11
-2.35037e-10
-1.83588e-11
-2.36822e-10
1.71687e-11
-2.32526e-10
5.07388e-11
-2.22353e-10
8.13352e-11
-2.0681e-10
1.08139e-10
-1.8667e-10
1.30534e-10
-1.62861e-10
1.48144e-10
-1.36432e-10
1.60822e-10
-1.08459e-10
1.68633e-10
-7.99869e-11
1.71812e-10
-5.19476e-11
1.70752e-10
-2.51736e-11
1.65934e-10
-3.44014e-13
1.57946e-10
2.19592e-11
1.47349e-10
4.1498e-11
1.34732e-10
5.8024e-11
1.20661e-10
7.14664e-11
1.05668e-10
8.18542e-11
9.02189e-11
8.93255e-11
7.47333e-11
9.40681e-11
5.95564e-11
9.63329e-11
4.49799e-11
9.63894e-11
3.12317e-11
9.45324e-11
1.84832e-11
9.10598e-11
6.86317e-12
8.62556e-11
-3.5423e-12
8.0386e-11
-1.27466e-11
7.37508e-11
-2.06907e-11
6.65338e-11
-2.74085e-11
5.89543e-11
-3.29277e-11
5.11789e-11
-3.73154e-11
4.33932e-11
-4.06301e-11
3.56965e-11
-4.29458e-11
2.82009e-11
-4.43419e-11
2.09992e-11
-4.48916e-11
1.41471e-11
-4.46825e-11
7.69728e-12
-4.37786e-11
1.67613e-12
-4.22609e-11
-3.8881e-12
-4.01981e-11
-8.95897e-12
-3.76626e-11
-1.35576e-11
-3.47088e-11
-1.76825e-11
-3.13976e-11
-2.13327e-11
-2.77814e-11
-2.45129e-11
-2.39125e-11
-2.72402e-11
-1.98373e-11
-2.95134e-11
-1.56009e-11
-3.13079e-11
-1.1262e-11
-3.24554e-11
-6.95758e-12
-3.23907e-11
-2.96669e-12
-3.0381e-11
-2.47232e-11
4.61501e-13
1.37503e-13
1.52237e-12
-2.40514e-12
2.90124e-12
-2.56392e-12
4.3656e-12
-1.53247e-12
5.77347e-12
-1.45854e-13
7.04693e-12
1.48822e-12
8.14463e-12
3.43134e-12
9.01938e-12
5.74978e-12
9.63756e-12
8.45549e-12
9.96104e-12
1.15679e-11
9.94783e-12
1.50972e-11
9.55276e-12
1.90514e-11
8.72591e-12
2.34332e-11
7.41167e-12
2.82418e-11
5.55271e-12
3.34728e-11
3.08633e-12
3.9114e-11
-5.51959e-14
4.51472e-11
-3.94013e-12
5.15408e-11
-8.59116e-12
5.82365e-11
-1.41231e-11
6.52312e-11
-2.05987e-11
7.24274e-11
-2.80744e-11
7.97362e-11
-3.66015e-11
8.7057e-11
-4.62271e-11
9.42717e-11
-5.69817e-11
1.01235e-10
-6.88844e-11
1.07783e-10
-8.19302e-11
1.13722e-10
-9.60902e-11
1.18839e-10
-1.11303e-10
1.22899e-10
-1.27472e-10
1.25642e-10
-1.44454e-10
1.26793e-10
-1.62058e-10
1.26061e-10
-1.80041e-10
1.23149e-10
-1.98093e-10
1.17763e-10
-2.15843e-10
1.09622e-10
-2.32852e-10
9.84726e-11
-2.48607e-10
8.41194e-11
-2.62562e-10
6.64208e-11
-2.74067e-10
4.53149e-11
-2.82489e-10
2.09331e-11
-2.87177e-10
-6.59247e-12
-2.87429e-10
-3.68706e-11
-2.82694e-10
-6.92042e-11
-2.72511e-10
-1.02833e-10
-2.56589e-10
-1.36766e-10
-2.34859e-10
-1.6983e-10
-2.07524e-10
-2.00726e-10
-1.75079e-10
-2.28094e-10
-1.38335e-10
-2.50657e-10
-9.83651e-11
-2.67229e-10
-5.64914e-11
-2.7691e-10
-1.41592e-11
-2.79154e-10
2.71322e-11
-2.73817e-10
6.59713e-11
-2.61191e-10
1.01123e-10
-2.41962e-10
1.31561e-10
-2.1711e-10
1.56565e-10
-1.87867e-10
1.7574e-10
-1.55607e-10
1.88953e-10
-1.21673e-10
1.96361e-10
-8.73943e-11
1.9832e-10
-5.39063e-11
1.95358e-10
-2.22095e-11
1.88171e-10
6.84451e-12
1.77417e-10
3.27123e-11
1.63852e-10
5.5064e-11
1.48187e-10
7.36887e-11
1.31102e-10
8.85501e-11
1.13209e-10
9.97466e-11
9.50547e-11
1.0748e-10
7.70986e-11
1.12025e-10
5.97231e-11
1.13707e-10
4.32344e-11
1.12876e-10
2.7867e-11
1.099e-10
1.37858e-11
1.05139e-10
1.10575e-12
9.89362e-11
-1.01313e-11