/*--------------------------------*- C++ -*----------------------------------*\
| =========                 |                                                 |
| \\      /  F ield         | OpenFOAM: The Open Source CFD Toolbox           |
|  \\    /   O peration     | Version:  2312                                  |
|   \\  /    A nd           | Website:  www.openfoam.com                      |
|    \\/     M anipulation  |                                                 |
\*---------------------------------------------------------------------------*/
FoamFile
{
    version     2.0;
    format      ascii;
    arch        "LSB;label=32;scalar=64";
    class       volScalarField;
    location    "0.35";
    object      p_rgh;
}
// * * * * * * * * * * * * * * * * * * * * * * * * * * * * * * * * * * * * * //

dimensions      [1 -1 -2 0 0 0 0];

internalField   nonuniform List<scalar> 
10000
(
0
0.000106228
0.000256524
0.000387256
0.000482842
0.000555136
0.000610594
0.00065296
0.000684931
0.000708371
0.000724677
0.000734721
0.000738978
0.00073777
0.000731034
0.000718712
0.000700659
0.000676359
0.000645245
0.000606679
0.000559882
0.000504235
0.00043924
0.000364376
0.00027918
0.000183158
7.56982e-05
-4.37012e-05
-0.000175355
-0.000319602
-0.000476916
-0.000647907
-0.000833378
-0.00103427
-0.00125146
-0.00148569
-0.00173776
-0.00200854
-0.00229895
-0.0026098
-0.00294204
-0.0032962
-0.00367279
-0.00407222
-0.00449488
-0.00494098
-0.00541046
-0.00590293
-0.00641783
-0.00695444
-0.00751161
-0.00808784
-0.00868124
-0.00928961
-0.00991035
-0.0105405
-0.0111768
-0.0118166
-0.012456
-0.013092
-0.0137215
-0.0143413
-0.0149484
-0.0155399
-0.0161129
-0.0166651
-0.0171943
-0.0176988
-0.0181773
-0.0186286
-0.0190521
-0.0194472
-0.0198137
-0.0201514
-0.0204604
-0.020741
-0.0209937
-0.0212183
-0.0214154
-0.0215852
-0.021728
-0.0218442
-0.0219347
-0.0220012
-0.022045
-0.0220687
-0.0220751
-0.0220681
-0.0220512
-0.022029
-0.0220058
-0.0219861
-0.0219732
-0.021969
-0.0219739
-0.0219864
-0.0220025
-0.0220182
-0.0220297
-0.0220341
0.000114849
0.000209937
0.000325159
0.000428515
0.0005114
0.000576905
0.000628214
0.000668027
0.000698369
0.000720875
0.00073665
0.000746322
0.000750396
0.000748947
0.000742043
0.00072975
0.000711705
0.000687442
0.00065642
0.000617881
0.00057117
0.000515771
0.000451135
0.00037678
0.000292234
0.000196854
9.00364e-05
-2.85959e-05
-0.000159373
-0.000302716
-0.000459145
-0.000629367
-0.000814312
-0.00101489
-0.00123187
-0.00146599
-0.00171811
-0.00198913
-0.00227996
-0.00259153
-0.0029245
-0.00327952
-0.00365703
-0.00405754
-0.00448145
-0.00492887
-0.00539967
-0.00589353
-0.00640992
-0.0069481
-0.00750689
-0.00808476
-0.0086799
-0.00929005
-0.00991261
-0.0105445
-0.0111827
-0.011824
-0.0124652
-0.013103
-0.0137342
-0.0143556
-0.0149642
-0.0155571
-0.0161314
-0.0166846
-0.0172148
-0.0177201
-0.0181992
-0.0186508
-0.0190744
-0.0194693
-0.0198355
-0.0201725
-0.0204809
-0.0207608
-0.0210124
-0.0212359
-0.0214319
-0.0216004
-0.0217421
-0.0218575
-0.0219474
-0.0220134
-0.0220569
-0.0220804
-0.0220867
-0.0220791
-0.0220618
-0.0220393
-0.0220157
-0.0219955
-0.0219822
-0.0219779
-0.0219819
-0.021993
-0.0220066
-0.0220187
-0.0220265
-0.0220285
0.000278377
0.000339526
0.00041452
0.000489982
0.000556785
0.000612701
0.00065821
0.000694406
0.000722536
0.000743636
0.000758392
0.000767403
0.000770855
0.000768855
0.000761577
0.000748848
0.000730343
0.000705687
0.000674269
0.000635473
0.000588784
0.000533637
0.000469519
0.00039598
0.000312432
0.000218233
0.000112898
-3.98698e-06
-0.000132903
-0.000274372
-0.00042903
-0.000597723
-0.000781379
-0.000980822
-0.00119682
-0.0014302
-0.00168181
-0.00195252
-0.00224323
-0.00255484
-0.00288806
-0.00324348
-0.00362164
-0.00402311
-0.00444825
-0.00489708
-0.00536954
-0.00586541
-0.00638417
-0.00692497
-0.00748665
-0.00806777
-0.00866656
-0.00928073
-0.00990753
-0.0105439
-0.0111867
-0.0118328
-0.0124788
-0.0131214
-0.0137573
-0.0143833
-0.0149961
-0.0155929
-0.0161707
-0.0167272
-0.0172602
-0.0177677
-0.0182482
-0.0187007
-0.0191246
-0.0195193
-0.0198846
-0.0202205
-0.0205272
-0.0208048
-0.0210537
-0.0212743
-0.0214673
-0.0216328
-0.0217719
-0.0218852
-0.0219734
-0.0220382
-0.022081
-0.0221038
-0.0221098
-0.0221021
-0.0220846
-0.0220617
-0.0220378
-0.0220173
-0.0220027
-0.0219962
-0.0219963
-0.0220019
-0.0220086
-0.0220141
-0.022016
-0.0220151
0.000429705
0.000463653
0.000510799
0.000563832
0.000614999
0.000660666
0.000699528
0.000731499
0.000756908
0.000776077
0.000789472
0.000797305
0.000799688
0.000796832
0.000788671
0.000774983
0.00075555
0.000729972
0.000697786
0.000658576
0.000611826
0.000557002
0.000493658
0.000421268
0.000339206
0.000246924
0.000143916
2.95982e-05
-9.66379e-05
-0.000235431
-0.000387575
-0.000553987
-0.000735547
-0.000933082
-0.00114743
-0.00137942
-0.00162984
-0.00189955
-0.00218949
-0.00250053
-0.0028334
-0.00318876
-0.00356723
-0.00396935
-0.00439546
-0.00484567
-0.00532001
-0.00581831
-0.00634006
-0.00688438
-0.00745024
-0.0080363
-0.00864078
-0.00926128
-0.00989493
-0.0105386
-0.0111892
-0.0118434
-0.0124976
-0.0131484
-0.0137923
-0.014426
-0.0150461
-0.0156495
-0.0162334
-0.0167952
-0.0173325
-0.0178433
-0.0183262
-0.0187803
-0.0192048
-0.0195992
-0.0199634
-0.0202972
-0.020601
-0.020875
-0.0211199
-0.0213362
-0.0215246
-0.0216854
-0.0218202
-0.0219298
-0.0220148
-0.0220768
-0.0221175
-0.0221388
-0.0221438
-0.0221356
-0.0221181
-0.0220955
-0.022071
-0.0220491
-0.0220315
-0.0220202
-0.0220136
-0.0220105
-0.0220073
-0.0220039
-0.0220003
-0.0219975
0.000552671
0.000573868
0.000604888
0.000642295
0.000680972
0.000717464
0.000749982
0.000777632
0.000799974
0.00081699
0.000828657
0.000834966
0.000836083
0.000831992
0.000822523
0.000807554
0.000786862
0.000760164
0.000727219
0.000687654
0.000640996
0.000586826
0.000524673
0.000453947
0.000374069
0.000284469
0.000184476
7.3372e-05
-4.95415e-05
-0.00018505
-0.000334073
-0.000497551
-0.000676382
-0.000871453
-0.0010836
-0.00131358
-0.00156216
-0.00183026
-0.00211885
-0.00242879
-0.00276081
-0.00311568
-0.00349407
-0.00389648
-0.00432333
-0.0047749
-0.0052513
-0.00575241
-0.00627778
-0.0068267
-0.00739827
-0.00799118
-0.00860354
-0.00923287
-0.00987625
-0.0105305
-0.0111924
-0.0118582
-0.0125243
-0.0131869
-0.0138424
-0.0144872
-0.0151177
-0.0157305
-0.0163227
-0.0168915
-0.0174345
-0.0179499
-0.018436
-0.0188923
-0.0193177
-0.0197116
-0.0200742
-0.0204053
-0.0207054
-0.0209749
-0.0212146
-0.0214254
-0.0216074
-0.0217622
-0.0218906
-0.0219939
-0.0220732
-0.0221301
-0.0221663
-0.0221843
-0.022187
-0.0221776
-0.0221592
-0.0221355
-0.02211
-0.0220855
-0.022064
-0.0220458
-0.022031
-0.022018
-0.0220052
-0.0219934
-0.0219854
-0.0219821
0.00065864
0.000673037
0.000694479
0.000721603
0.000751098
0.000780332
0.000807366
0.000830887
0.000850232
0.000864919
0.000874634
0.000879353
0.000878992
0.00087337
0.000862404
0.000845986
0.000823989
0.000796344
0.00076287
0.000723237
0.000677124
0.000624151
0.000563785
0.00049543
0.000418467
0.000332157
0.000235694
0.000128308
9.1982e-06
-0.00012257
-0.000267997
-0.00042807
-0.000603747
-0.000795911
-0.00100531
-0.00123264
-0.00147876
-0.00174465
-0.00203129
-0.0023395
-0.00267009
-0.00302391
-0.00340167
-0.00380392
-0.00423118
-0.00468393
-0.00516244
-0.00566671
-0.00619648
-0.00675125
-0.00733021
-0.00793203
-0.00855472
-0.00919576
-0.00985222
-0.0105208
-0.0111977
-0.0118792
-0.0125612
-0.0132397
-0.0139107
-0.01457
-0.0152139
-0.0158387
-0.0164414
-0.0170191
-0.0175694
-0.0180904
-0.0185807
-0.0190393
-0.0194654
-0.0198587
-0.0202192
-0.0205472
-0.0208427
-0.0211068
-0.02134
-0.0215435
-0.0217176
-0.0218638
-0.0219835
-0.0220778
-0.0221485
-0.0221974
-0.0222265
-0.0222387
-0.0222365
-0.0222234
-0.0222026
-0.0221772
-0.02215
-0.0221224
-0.0220967
-0.0220719
-0.0220489
-0.0220267
-0.0220057
-0.0219876
-0.0219767
-0.0219737
0.00075404
0.000764276
0.000779899
0.000800321
0.000823436
0.000847197
0.000869713
0.000889658
0.000906194
0.000918518
0.000926344
0.000929387
0.000927356
0.000920124
0.000907633
0.000889853
0.000866852
0.000838627
0.000805024
0.00076588
0.000720977
0.000669895
0.000612062
0.000546814
0.000473345
0.000390767
0.000298245
0.000194967
7.9996e-05
-4.7712e-05
-0.000189223
-0.000345582
-0.000517745
-0.000706484
-0.000912468
-0.00113647
-0.00137946
-0.00164241
-0.00192627
-0.00223193
-0.00256031
-0.00291228
-0.00328862
-0.00369
-0.00411713
-0.00457072
-0.0050513
-0.0055591
-0.00609412
-0.00665605
-0.00724417
-0.00785716
-0.008493
-0.00914912
-0.00982241
-0.0105093
-0.0112056
-0.0119072
-0.0126096
-0.0133083
-0.0139986
-0.014676
-0.0153364
-0.0159761
-0.0165918
-0.0171804
-0.0177394
-0.0182671
-0.0187619
-0.0192229
-0.0196497
-0.0200421
-0.0203999
-0.0207235
-0.0210134
-0.0212704
-0.0214954
-0.0216894
-0.0218535
-0.0219886
-0.0220968
-0.0221794
-0.0222386
-0.0222767
-0.0222956
-0.0222987
-0.0222892
-0.0222704
-0.0222459
-0.0222176
-0.0221882
-0.0221582
-0.0221286
-0.0220988
-0.0220686
-0.0220389
-0.0220116
-0.02199
-0.0219781
-0.021976
0.000842557
0.00085021
0.000862162
0.000878298
0.000897053
0.000916672
0.000935647
0.000952638
0.000966592
0.000976758
0.000982758
0.000984005
0.000980284
0.000971501
0.000957668
0.000938931
0.00091541
0.000887101
0.000854008
0.000816117
0.000773202
0.000724791
0.000670225
0.000608643
0.000539061
0.000460563
0.000372312
0.000273398
0.000162777
3.93443e-05
-9.80107e-05
-0.000250327
-0.00041845
-0.000603047
-0.000804821
-0.00102468
-0.00126364
-0.00152265
-0.00180266
-0.00210469
-0.00242978
-0.00277879
-0.00315262
-0.00355216
-0.0039784
-0.00443236
-0.00491487
-0.0054265
-0.00596755
-0.00653795
-0.00713712
-0.0077638
-0.00841594
-0.00909082
-0.00978503
-0.0104946
-0.011215
-0.0119415
-0.012669
-0.0133922
-0.014106
-0.0148054
-0.015486
-0.0161439
-0.0167751
-0.0173764
-0.0179456
-0.0184807
-0.0189806
-0.0194442
-0.0198712
-0.0202616
-0.0206156
-0.0209334
-0.0212159
-0.0214637
-0.0216782
-0.0218602
-0.0220114
-0.0221331
-0.0222272
-0.0222952
-0.0223399
-0.0223641
-0.0223704
-0.0223624
-0.0223436
-0.0223175
-0.0222875
-0.0222561
-0.0222242
-0.0221926
-0.0221601
-0.0221268
-0.0220918
-0.0220575
-0.0220263
-0.0220032
-0.0219913
-0.0219902
0.000926818
0.000932835
0.000942507
0.000955866
0.000971519
0.000988127
0.00100429
0.00101871
0.00103048
0.00103877
0.00104289
0.00104233
0.00103703
0.00102692
0.00101221
0.000993072
0.0009696
0.0009419
0.000910152
0.000874353
0.000834217
0.000789186
0.000738406
0.00068082
0.000615404
0.000541257
0.000457481
0.000363077
0.000256972
0.000138052
5.21658e-06
-0.000142469
-0.000305726
-0.000485228
-0.000681808
-0.00089646
-0.00113019
-0.00138397
-0.00165885
-0.00195596
-0.00227633
-0.00262096
-0.00299093
-0.00338745
-0.00381187
-0.00426554
-0.00474965
-0.00526519
-0.00581292
-0.0063931
-0.00700532
-0.00764833
-0.00832003
-0.00901751
-0.00973698
-0.010474
-0.0112234
-0.0119798
-0.0127372
-0.0134898
-0.0142318
-0.0149579
-0.0156627
-0.0163419
-0.0169912
-0.0176074
-0.0181883
-0.018732
-0.0192372
-0.0197032
-0.0201296
-0.0205167
-0.0208651
-0.0211752
-0.0214479
-0.021684
-0.0218849
-0.0220525
-0.0221881
-0.0222934
-0.0223704
-0.0224213
-0.0224493
-0.0224574
-0.0224494
-0.0224287
-0.0223993
-0.0223652
-0.0223293
-0.0222942
-0.0222599
-0.0222267
-0.0221925
-0.0221569
-0.0221192
-0.0220821
-0.0220494
-0.0220262
-0.022015
-0.0220142
0.00100866
0.00101361
0.001022
0.00103342
0.00104691
0.00106119
0.00107501
0.00108734
0.00109719
0.00110358
0.00110588
0.00110374
0.00109711
0.00108611
0.00107111
0.00105217
0.00102947
0.00100321
0.000973677
0.000940752
0.000904057
0.000862856
0.000816107
0.000762701
0.000701644
0.000631997
0.000552799
0.000463065
0.000361764
0.000247813
0.000120198
-2.18982e-05
-0.000179172
-0.00035242
-0.0005426
-0.00075073
-0.000977821
-0.00122493
-0.0014932
-0.00178379
-0.00209786
-0.00243648
-0.00280108
-0.00319323
-0.00361463
-0.00406699
-0.00455205
-0.00507138
-0.00562626
-0.00621736
-0.00684445
-0.00750633
-0.00820083
-0.00892482
-0.00967406
-0.0104435
-0.0112272
-0.0120189
-0.012812
-0.0135996
-0.0143751
-0.0151325
-0.0158658
-0.0165697
-0.0172402
-0.0178738
-0.0184682
-0.0190213
-0.0195321
-0.02
-0.020425
-0.0208072
-0.0211477
-0.0214475
-0.0217075
-0.021929
-0.0221136
-0.0222635
-0.0223804
-0.0224665
-0.0225239
-0.0225555
-0.0225652
-0.0225561
-0.0225326
-0.022499
-0.0224592
-0.0224167
-0.0223745
-0.0223342
-0.0222971
-0.0222614
-0.0222258
-0.0221881
-0.022149
-0.0221111
-0.0220786
-0.0220559
-0.0220458
-0.0220453
0.00108965
0.00109404
0.0011013
0.00111156
0.00112331
0.00113566
0.0011476
0.00115809
0.00116605
0.00117063
0.00117127
0.00116777
0.00116027
0.00114907
0.00113438
0.00111627
0.00109522
0.00107115
0.00104458
0.00101513
0.000982247
0.000945022
0.000902372
0.000853237
0.000796614
0.000731531
0.000657082
0.000572381
0.000476463
0.00036831
0.000247005
0.000111761
-3.82329e-05
-0.000203922
-0.000386336
-0.000586509
-0.000805503
-0.00104446
-0.00130454
-0.00158696
-0.00189295
-0.00222386
-0.00258142
-0.00296754
-0.00338431
-0.003834
-0.00431899
-0.00484159
-0.00540367
-0.00600632
-0.00664965
-0.00733264
-0.00805307
-0.0088075
-0.00959121
-0.0103984
-0.0112225
-0.012056
-0.0128911
-0.01372
-0.0145349
-0.0153289
-0.0160956
-0.0168284
-0.0175236
-0.0181773
-0.0187868
-0.0193504
-0.019867
-0.0203364
-0.0207586
-0.0211341
-0.0214642
-0.0217505
-0.0219948
-0.0221983
-0.0223634
-0.0224924
-0.0225875
-0.0226514
-0.0226877
-0.0226986
-0.0226883
-0.0226615
-0.0226227
-0.0225759
-0.0225254
-0.0224742
-0.0224254
-0.0223792
-0.0223372
-0.0222979
-0.0222595
-0.0222199
-0.0221795
-0.0221417
-0.0221105
-0.0220893
-0.0220793
-0.0220784
0.00117077
0.00117478
0.00118136
0.00119023
0.00120076
0.00121158
0.00122186
0.00123054
0.00123671
0.00123962
0.00123887
0.00123448
0.00122671
0.00121581
0.00120204
0.00118571
0.00116724
0.00114548
0.00112257
0.00109689
0.00106785
0.00103456
0.000995994
0.000951117
0.000898943
0.0008386
0.000769336
0.000690367
0.000600779
0.000499614
0.000385973
0.000258956
0.000117581
-3.92113e-05
-0.00021249
-0.000403334
-0.000612857
-0.000842199
-0.00109253
-0.00136509
-0.00166134
-0.00198269
-0.00233126
-0.00270932
-0.00311947
-0.00356465
-0.004048
-0.00457262
-0.00514111
-0.00575518
-0.00641547
-0.00712134
-0.00787062
-0.00865964
-0.00948313
-0.0103345
-0.0112059
-0.0120886
-0.0129732
-0.0138506
-0.0147119
-0.0155489
-0.0163539
-0.0171211
-0.0178449
-0.0185215
-0.019148
-0.0197231
-0.0202456
-0.0207156
-0.0211332
-0.0214998
-0.0218171
-0.0220868
-0.0223117
-0.0224936
-0.0226357
-0.0227406
-0.0228116
-0.022851
-0.0228632
-0.0228522
-0.0228221
-0.0227769
-0.0227219
-0.0226616
-0.0226004
-0.0225405
-0.0224839
-0.0224306
-0.022382
-0.0223363
-0.0222926
-0.0222495
-0.0222074
-0.0221697
-0.0221394
-0.0221195
-0.0221099
-0.022108
0.00125249
0.00125641
0.00126241
0.00127026
0.00127936
0.00128892
0.00129757
0.00130452
0.00130904
0.00131056
0.0013089
0.00130419
0.00129667
0.00128665
0.00127448
0.00126044
0.00124462
0.00122681
0.00120719
0.00118509
0.00115973
0.00113026
0.0010957
0.00105502
0.00100746
0.000952353
0.00088907
0.000816872
0.000734859
0.000642062
0.000537462
0.000419973
0.00028846
0.000141794
-2.1142e-05
-0.000201471
-0.000400305
-0.000618728
-0.000857848
-0.00111898
-0.0014038
-0.00171354
-0.00205091
-0.00241854
-0.0028196
-0.00325773
-0.0037369
-0.00426114
-0.00483408
-0.00545843
-0.00613565
-0.00686572
-0.00764683
-0.0084751
-0.00934462
-0.0102476
-0.0111747
-0.0121154
-0.0130586
-0.0139935
-0.0149097
-0.0157975
-0.0166479
-0.0174542
-0.0182105
-0.018913
-0.0195583
-0.0201453
-0.0206732
-0.0211425
-0.0215537
-0.021909
-0.0222106
-0.0224608
-0.0226618
-0.0228187
-0.0229345
-0.0230121
-0.023055
-0.0230676
-0.0230541
-0.0230192
-0.0229676
-0.0229033
-0.0228315
-0.0227571
-0.0226841
-0.0226146
-0.0225495
-0.0224876
-0.02243
-0.0223751
-0.0223234
-0.0222745
-0.0222297
-0.0221912
-0.0221618
-0.0221422
-0.0221324
-0.0221293
0.00133528
0.00133902
0.00134449
0.00135152
0.00135941
0.00136733
0.00137471
0.00138001
0.00138317
0.00138377
0.00138176
0.00137725
0.00137053
0.00136201
0.00135201
0.00134067
0.00132796
0.00131364
0.0012974
0.00127868
0.00125675
0.00123102
0.0012004
0.00116399
0.00112156
0.00107256
0.00101636
0.000952192
0.000879109
0.000795999
0.000701638
0.000594768
0.000474162
0.000338627
0.000186982
1.81015e-05
-0.000169049
-0.000375436
-0.000602066
-0.000850145
-0.00112115
-0.0014178
-0.00174166
-0.00209608
-0.00248482
-0.00291226
-0.00338337
-0.00390338
-0.00447738
-0.00510961
-0.0058029
-0.00655831
-0.00737452
-0.00824755
-0.00917056
-0.0101343
-0.0111275
-0.0121372
-0.0131503
-0.0141536
-0.0151346
-0.0160816
-0.0169848
-0.0178362
-0.0186293
-0.0193602
-0.0200256
-0.0206244
-0.0211565
-0.0216232
-0.0220259
-0.0223672
-0.0226497
-0.0228778
-0.0230492
-0.0231784
-0.0232638
-0.0233105
-0.0233227
-0.0233053
-0.0232631
-0.0232021
-0.023127
-0.0230429
-0.0229532
-0.022863
-0.0227763
-0.0226954
-0.0226197
-0.0225476
-0.022479
-0.0224126
-0.0223503
-0.0222931
-0.0222436
-0.0222028
-0.0221728
-0.0221528
-0.0221414
-0.0221368
0.00141906
0.00142263
0.00142773
0.00143393
0.00144061
0.00144709
0.00145262
0.00145703
0.00145938
0.00145963
0.00145777
0.00145399
0.00144867
0.00144216
0.00143468
0.00142622
0.00141658
0.00140539
0.00139223
0.00137665
0.00135814
0.00133604
0.0013096
0.00127758
0.00124128
0.00119955
0.00115169
0.00109686
0.00103393
0.000961558
0.000878349
0.000782938
0.000674025
0.000550333
0.000410636
0.000253882
7.92108e-05
-0.000114192
-0.000327216
-0.000561018
-0.000817202
-0.00109798
-0.00140551
-0.00174328
-0.00211543
-0.00252715
-0.00298466
-0.00349486
-0.00406487
-0.00470124
-0.00540894
-0.0061906
-0.00704571
-0.00797018
-0.00895609
-0.00999216
-0.0110643
-0.0121566
-0.013253
-0.0143374
-0.0153945
-0.0164107
-0.0173744
-0.0182769
-0.0191113
-0.0198729
-0.0205593
-0.0211695
-0.0217041
-0.0221655
-0.022556
-0.0228792
-0.0231387
-0.0233384
-0.0234824
-0.0235776
-0.0236282
-0.0236401
-0.0236179
-0.0235675
-0.0234937
-0.0234037
-0.0233028
-0.0231962
-0.0230871
-0.0229793
-0.022876
-0.0227801
-0.0226911
-0.0226062
-0.0225244
-0.0224446
-0.0223695
-0.0223022
-0.0222457
-0.0222014
-0.0221688
-0.0221469
-0.0221336
-0.0221273
0.00150373
0.00150729
0.00151197
0.00151734
0.00152292
0.00152818
0.00153263
0.00153602
0.00153799
0.00153835
0.00153716
0.00153469
0.00153127
0.00152711
0.00152226
0.0015166
0.00150975
0.00150131
0.00149094
0.00147833
0.00146311
0.00144496
0.00142399
0.00139553
0.00136718
0.00133404
0.00129576
0.00125136
0.00119947
0.00113857
0.00106716
0.000983804
0.000887094
0.00077568
0.000648381
0.000504306
0.000342797
0.000163195
-3.5294e-05
-0.000253681
-0.000493392
-0.000756486
-0.00104465
-0.00136158
-0.00171171
-0.00210109
-0.00253757
-0.00303035
-0.00358946
-0.00422466
-0.00494405
-0.00575263
-0.0066512
-0.00763555
-0.00869618
-0.00981881
-0.0109856
-0.0121769
-0.0133724
-0.0145524
-0.0156984
-0.0167942
-0.0178273
-0.0187871
-0.0196668
-0.0204615
-0.0211694
-0.0217901
-0.0223251
-0.0227774
-0.0231515
-0.0234521
-0.0236836
-0.023851
-0.0239608
-0.0240187
-0.0240305
-0.0240034
-0.0239427
-0.0238554
-0.0237467
-0.0236238
-0.0234938
-0.0233618
-0.0232306
-0.0231023
-0.0229799
-0.0228657
-0.0227594
-0.0226586
-0.0225613
-0.022467
-0.0223781
-0.0222995
-0.0222338
-0.0221835
-0.0221469
-0.0221216
-0.0221054
-0.0220973
0.00158921
0.00159274
0.00159703
0.00160166
0.00160626
0.00161047
0.00161413
0.00161707
0.00161908
0.00162004
0.00162008
0.00161942
0.00161822
0.00161655
0.00161429
0.00161114
0.00160674
0.00160077
0.00159301
0.00158327
0.00157138
0.00155731
0.00154101
0.0015217
0.0015007
0.00147689
0.00144906
0.00141584
0.00137557
0.00132663
0.00126748
0.00119656
0.00111237
0.00101356
0.000899108
0.000768274
0.000620488
0.000455191
0.00027175
6.95044e-05
-0.000152415
-0.000395243
-0.000661328
-0.000952625
-0.00127411
-0.00163293
-0.00203889
-0.00250427
-0.00304305
-0.00366956
-0.00439641
-0.00523221
-0.00617961
-0.00723405
-0.00838369
-0.0096102
-0.0108908
-0.0122004
-0.0135136
-0.0148061
-0.0160558
-0.0172434
-0.0183549
-0.0193787
-0.0203078
-0.0211379
-0.0218675
-0.0224966
-0.023029
-0.0234685
-0.0238209
-0.0240929
-0.0242903
-0.0244202
-0.0244892
-0.0245045
-0.0244723
-0.0244009
-0.0242978
-0.0241694
-0.0240219
-0.0238619
-0.023698
-0.0235368
-0.0233802
-0.0232292
-0.0230843
-0.0229483
-0.0228215
-0.0227019
-0.0225867
-0.022476
-0.0223722
-0.0222804
-0.0222045
-0.0221463
-0.022104
-0.0220742
-0.0220551
-0.0220455
0.00167523
0.00167877
0.00168279
0.00168675
0.00169051
0.00169403
0.00169726
0.00170015
0.00170263
0.00170478
0.00170653
0.00170799
0.00170918
0.00170997
0.00171006
0.00170913
0.00170693
0.00170328
0.00169808
0.00169136
0.00168335
0.00167433
0.00166449
0.0016537
0.00164198
0.0016284
0.00161167
0.00159005
0.00156179
0.00152521
0.00147868
0.00142053
0.00134922
0.00126351
0.00116251
0.00104543
0.000911629
0.000760634
0.000592179
0.000406213
0.000202768
-1.84088e-05
-0.000258619
-0.000518721
-0.000803951
-0.0011224
-0.00148609
-0.00191102
-0.00241655
-0.00302355
-0.00375112
-0.00461305
-0.00561472
-0.00675105
-0.008007
-0.00935865
-0.0107765
-0.012228
-0.0136814
-0.0151065
-0.0164772
-0.0177707
-0.0189711
-0.0200662
-0.0210487
-0.0219153
-0.0226659
-0.0233016
-0.0238272
-0.0242485
-0.0245733
-0.0248099
-0.0249658
-0.0250504
-0.0250713
-0.025037
-0.0249551
-0.0248332
-0.0246818
-0.0245074
-0.0243165
-0.0241158
-0.0239133
-0.0237179
-0.0235315
-0.023354
-0.0231844
-0.0230244
-0.0228736
-0.0227317
-0.0225964
-0.0224674
-0.0223481
-0.0222424
-0.0221554
-0.022088
-0.0220384
-0.0220034
-0.0219805
-0.0219696
0.0017616
0.00176524
0.00176901
0.00177245
0.00177569
0.00177885
0.00178202
0.00178529
0.00178876
0.0017924
0.00179628
0.00180003
0.00180361
0.00180665
0.00180883
0.00180992
0.0018098
0.00180844
0.00180598
0.00180284
0.00179958
0.00179669
0.00179443
0.00179274
0.00179114
0.0017885
0.00178316
0.00177345
0.00175758
0.00173381
0.00170035
0.00165552
0.00159784
0.00152608
0.00143918
0.00133612
0.00121611
0.00107886
0.000924691
0.000754459
0.000569535
0.000371215
0.000159756
-6.36378e-05
-0.00030455
-0.00057135
-0.000878164
-0.0012455
-0.00169984
-0.00227114
-0.00298795
-0.00387173
-0.00493243
-0.0061646
-0.00754849
-0.00905216
-0.0106368
-0.0122603
-0.013882
-0.0154647
-0.0169765
-0.0183928
-0.0196942
-0.0208682
-0.0219078
-0.0228112
-0.0235802
-0.0242182
-0.0247315
-0.025128
-0.0254174
-0.0256103
-0.0257164
-0.025746
-0.0257101
-0.0256181
-0.0254788
-0.0252995
-0.0250926
-0.0248665
-0.0246274
-0.0243809
-0.0241357
-0.0239004
-0.0236799
-0.0234719
-0.023274
-0.0230871
-0.022911
-0.0227451
-0.0225881
-0.0224397
-0.0223034
-0.0221833
-0.0220842
-0.0220066
-0.0219486
-0.0219075
-0.0218811
-0.0218688
0.00184816
0.00185185
0.00185548
0.00185868
0.00186173
0.00186488
0.00186842
0.00187257
0.0018774
0.00188288
0.00188883
0.00189497
0.00190074
0.00190579
0.00190988
0.0019129
0.00191486
0.00191599
0.00191681
0.00191807
0.00192053
0.00192475
0.00193097
0.00193896
0.00194791
0.00195643
0.00196284
0.00196538
0.00196242
0.00195208
0.00193257
0.00190218
0.0018594
0.00180265
0.0017304
0.00164128
0.00153443
0.00140981
0.00126846
0.00111248
0.000945099
0.00077013
0.000590869
0.000406348
0.000217148
1.45366e-05
-0.000217471
-0.000504427
-0.000881756
-0.00139211
-0.00207847
-0.00297487
-0.00409864
-0.00544397
-0.00698409
-0.00867549
-0.0104659
-0.0123005
-0.0141263
-0.0158977
-0.0175758
-0.019133
-0.020548
-0.021808
-0.0229072
-0.0238459
-0.0246283
-0.0252612
-0.0257535
-0.0261161
-0.02636
-0.0264989
-0.0265455
-0.0265103
-0.0264074
-0.026248
-0.0260423
-0.0257985
-0.0255285
-0.0252431
-0.0249501
-0.0246529
-0.0243605
-0.0240814
-0.023821
-0.023578
-0.0233489
-0.0231326
-0.022929
-0.0227374
-0.0225575
-0.0223894
-0.0222358
-0.022101
-0.0219888
-0.0219003
-0.0218336
-0.0217859
-0.0217557
-0.0217422
0.00193463
0.0019384
0.00194213
0.00194538
0.00194857
0.00195216
0.00195651
0.00196186
0.00196832
0.00197577
0.00198385
0.00199204
0.00199975
0.00200663
0.00201254
0.00201749
0.00202172
0.00202584
0.00203072
0.00203729
0.00204635
0.00205847
0.00207374
0.00209171
0.00211134
0.00213121
0.00214971
0.00216519
0.0021759
0.00218016
0.00217612
0.00216196
0.00213569
0.00209507
0.00203792
0.0019625
0.00186785
0.00175415
0.0016232
0.00147861
0.00132576
0.00117116
0.00102113
0.000879058
0.000748292
0.000623134
0.000487753
0.00031208
4.96509e-05
-0.000360497
-0.000984441
-0.00187691
-0.00306717
-0.0045489
-0.00628433
-0.00821248
-0.010261
-0.0123569
-0.0144319
-0.0164293
-0.0183022
-0.0200201
-0.0215613
-0.0229134
-0.0240722
-0.0250412
-0.0258288
-0.0264456
-0.0269046
-0.0272197
-0.0274046
-0.0274777
-0.0274526
-0.0273411
-0.0271595
-0.0269229
-0.0266416
-0.0263247
-0.0259842
-0.0256328
-0.0252791
-0.0249271
-0.0245831
-0.024256
-0.0239514
-0.0236689
-0.0234045
-0.0231564
-0.0229235
-0.0227057
-0.0225025
-0.0223141
-0.0221428
-0.0219933
-0.021868
-0.0217679
-0.0216921
-0.021638
-0.021604
-0.0215891
0.0020209
0.00202487
0.00202887
0.00203247
0.00203622
0.00204063
0.00204608
0.00205285
0.00206103
0.00207037
0.00208033
0.0020903
0.00209979
0.00210842
0.00211616
0.0021232
0.00213018
0.002138
0.00214774
0.00216039
0.00217674
0.00219721
0.00222172
0.00224969
0.00228008
0.00231161
0.00234281
0.00237212
0.00239798
0.00241869
0.00243236
0.00243662
0.00242865
0.00240541
0.002364
0.00230212
0.00221853
0.00211351
0.00198952
0.00185155
0.00170719
0.00156628
0.0014398
0.00133808
0.0012678
0.00123255
0.00121989
0.00119723
0.00110467
0.000854506
0.000343946
-0.000517171
-0.00177716
-0.00342871
-0.00541519
-0.00764753
-0.0100239
-0.0124457
-0.0148251
-0.0170905
-0.0191913
-0.0210909
-0.0227689
-0.0242155
-0.0254302
-0.0264207
-0.0272005
-0.0277857
-0.0281948
-0.0284449
-0.0285554
-0.0285459
-0.0284338
-0.0282335
-0.0279614
-0.0276352
-0.0272684
-0.0268703
-0.026452
-0.0260279
-0.0256073
-0.0251949
-0.0247956
-0.0244176
-0.0240658
-0.023741
-0.0234386
-0.0231563
-0.0228926
-0.0226472
-0.0224201
-0.0222113
-0.0220228
-0.021858
-0.0217196
-0.0216083
-0.0215232
-0.0214626
-0.0214251
-0.021409
0.00210696
0.00211122
0.0021157
0.00211998
0.00212459
0.00213003
0.00213673
0.00214501
0.00215482
0.0021658
0.00217734
0.00218889
0.00219998
0.00221043
0.00222016
0.00222974
0.00224007
0.0022523
0.00226756
0.00228684
0.00231079
0.00233967
0.00237331
0.00241121
0.00245255
0.00249625
0.00254106
0.00258569
0.00262875
0.00266855
0.00270263
0.00272772
0.00274018
0.00273605
0.00271148
0.00266336
0.0025898
0.00249083
0.00236905
0.00223026
0.00208408
0.00194426
0.0018283
0.00175558
0.00174321
0.00180668
0.00194565
0.00213004
0.00228579
0.00228672
0.0019706
0.00118522
-0.000148309
-0.00201882
-0.00433676
-0.00696706
-0.00976445
-0.0125949
-0.0153467
-0.0179303
-0.0202909
-0.0223907
-0.024212
-0.0257509
-0.0270122
-0.02801
-0.0287643
-0.029298
-0.0296361
-0.029801
-0.0298159
-0.0297045
-0.029488
-0.029183
-0.0288066
-0.0283783
-0.0279152
-0.0274265
-0.0269235
-0.0264201
-0.0259271
-0.0254494
-0.0249916
-0.0245594
-0.0241582
-0.0237882
-0.023446
-0.0231282
-0.0228331
-0.0225601
-0.0223087
-0.0220791
-0.0218735
-0.0216937
-0.0215422
-0.0214201
-0.0213264
-0.0212595
-0.0212183
-0.0212009
0.0021928
0.0021975
0.00220268
0.00220779
0.00221334
0.00221989
0.00222791
0.0022376
0.0022488
0.00226113
0.00227404
0.00228704
0.00229971
0.00231194
0.00232416
0.00233682
0.00235112
0.00236829
0.00238948
0.00241554
0.00244699
0.002484
0.00252655
0.00257441
0.00262705
0.00268368
0.00274346
0.00280548
0.00286842
0.00293017
0.00298758
0.00303644
0.00307207
0.00308958
0.00308389
0.00305058
0.00298657
0.00289072
0.00276475
0.00261439
0.00245078
0.00229175
0.00216265
0.00209573
0.00212677
0.00228801
0.00260493
0.00306176
0.00357603
0.00396775
0.00397687
0.00334049
0.0019288
-0.000235407
-0.00300282
-0.00616326
-0.00950587
-0.0128485
-0.0160486
-0.0190077
-0.0216622
-0.0239777
-0.0259435
-0.0275651
-0.0288568
-0.0298414
-0.0305467
-0.0310035
-0.0312442
-0.0312993
-0.0311944
-0.0309581
-0.0306161
-0.0301884
-0.0296918
-0.0291479
-0.0285757
-0.0279864
-0.0273907
-0.0268019
-0.0262313
-0.0256836
-0.0251627
-0.0246737
-0.0242215
-0.0238053
-0.0234219
-0.0230678
-0.0227409
-0.0224404
-0.0221656
-0.0219161
-0.0216934
-0.0214993
-0.0213352
-0.0212023
-0.0211001
-0.0210275
-0.0209829
-0.0209641
0.00227849
0.00228373
0.00228962
0.00229553
0.00230204
0.00230974
0.00231897
0.00232983
0.00234217
0.00235563
0.00236975
0.00238409
0.00239838
0.00241271
0.00242757
0.00244406
0.00246275
0.00248515
0.0025123
0.00254489
0.00258337
0.00262811
0.0026794
0.00273734
0.00280175
0.00287238
0.00294894
0.00303079
0.00311644
0.00320314
0.00328706
0.00336328
0.00342593
0.00346881
0.00348545
0.00346949
0.00341554
0.00331991
0.00318199
0.00300604
0.00280349
0.00259568
0.00241674
0.00231546
0.00235256
0.00259017
0.00309363
0.00389232
0.00491572
0.00591495
0.00646702
0.00610206
0.00460605
0.00202918
-0.00136562
-0.00524344
-0.00929611
-0.0132805
-0.0170198
-0.0204104
-0.0233878
-0.025927
-0.0280303
-0.0297162
-0.0310132
-0.0319549
-0.0325802
-0.032927
-0.0330392
-0.0329533
-0.0326993
-0.0323106
-0.031819
-0.0312475
-0.0306127
-0.0299383
-0.029244
-0.028543
-0.0278463
-0.0271663
-0.0265129
-0.0258914
-0.0253048
-0.0247571
-0.0242514
-0.0237875
-0.0233617
-0.0229707
-0.0226124
-0.0222851
-0.0219877
-0.0217197
-0.0214808
-0.0212727
-0.0210969
-0.020954
-0.0208441
-0.0207658
-0.0207178
-0.0206976
0.002364
0.00236971
0.00237619
0.00238287
0.00239033
0.00239906
0.0024093
0.00242112
0.00243438
0.00244878
0.00246396
0.00247962
0.0024957
0.00251242
0.00253036
0.00255043
0.00257417
0.00260171
0.00263442
0.00267291
0.00271784
0.00276992
0.00282979
0.00289792
0.00297474
0.00306068
0.00315595
0.00325999
0.003371
0.0034858
0.00360001
0.00370801
0.00380292
0.00387679
0.00392116
0.00392707
0.00388538
0.00378811
0.00363027
0.00341235
0.00314377
0.00284736
0.00256469
0.00236136
0.00232866
0.00257986
0.0032338
0.00442559
0.0061547
0.00810041
0.00956845
0.00968491
0.00809195
0.00490628
0.000610307
-0.00424971
-0.00922695
-0.0140062
-0.0183834
-0.0222576
-0.0255772
-0.0283354
-0.0305547
-0.0322734
-0.0335375
-0.0343955
-0.0348989
-0.0350916
-0.0350365
-0.0347712
-0.0343336
-0.0337617
-0.0330923
-0.0323523
-0.0315602
-0.0307392
-0.0299099
-0.0290866
-0.0282797
-0.0275023
-0.026763
-0.0260647
-0.0254102
-0.0248023
-0.0242431
-0.0237315
-0.0232632
-0.0228354