/*--------------------------------*- C++ -*----------------------------------*\
| =========                 |                                                 |
| \\      /  F ield         | OpenFOAM: The Open Source CFD Toolbox           |
|  \\    /   O peration     | Version:  2312                                  |
|   \\  /    A nd           | Website:  www.openfoam.com                      |
|    \\/     M anipulation  |                                                 |
\*---------------------------------------------------------------------------*/
FoamFile
{
    version     2.0;
    format      ascii;
    arch        "LSB;label=32;scalar=64";
    class       surfaceScalarField;
    location    "0.35";
    object      phi;
}
// * * * * * * * * * * * * * * * * * * * * * * * * * * * * * * * * * * * * * //

dimensions      [0 3 -1 0 0 0 0];

oriented        oriented;

internalField   nonuniform List<scalar> 
19800
(
-3.92418e-13
4.07644e-13
-1.55031e-12
1.15258e-12
-2.76429e-12
1.21641e-12
-3.74585e-12
9.79161e-13
-4.41566e-12
6.7065e-13
-4.93405e-12
5.18399e-13
-5.45697e-12
5.23485e-13
-6.07743e-12
6.20483e-13
-6.84165e-12
7.63818e-13
-7.77244e-12
9.2891e-13
-8.88267e-12
1.10849e-12
-1.01827e-11
1.29947e-12
-1.1683e-11
1.49999e-12
-1.33934e-11
1.71185e-12
-1.53251e-11
1.933e-12
-1.74882e-11
2.16253e-12
-1.98898e-11
2.40088e-12
-2.25369e-11
2.64588e-12
-2.54339e-11
2.89582e-12
-2.85822e-11
3.14853e-12
-3.19811e-11
3.39979e-12
-3.56252e-11
3.64452e-12
-3.95029e-11
3.87778e-12
-4.3597e-11
4.09375e-12
-4.78834e-11
4.28611e-12
-5.23308e-11
4.44842e-12
-5.69014e-11
4.57308e-12
-6.15509e-11
4.65178e-12
-6.62261e-11
4.6768e-12
-7.08659e-11
4.64057e-12
-7.54016e-11
4.53579e-12
-7.97569e-11
4.35558e-12
-8.38527e-11
4.09682e-12
-8.76041e-11
3.7529e-12
-9.09233e-11
3.32006e-12
-9.37243e-11
2.80149e-12
-9.59115e-11
2.18799e-12
-9.74032e-11
1.49284e-12
-9.81272e-11
7.25028e-13
-9.79971e-11
-1.29297e-13
-9.698e-11
-1.01685e-12
-9.50338e-11
-1.94686e-12
-9.21366e-11
-2.8983e-12
-8.82909e-11
-3.84671e-12
-8.35276e-11
-4.76405e-12
-7.7895e-11
-5.63369e-12
-7.1474e-11
-6.42272e-12
-6.43672e-11
-7.1083e-12
-5.67e-11
-7.66766e-12
-4.86171e-11
-8.0824e-12
-4.02764e-11
-8.33977e-12
-3.1845e-11
-8.43035e-12
-2.34925e-11
-8.3511e-12
-1.53856e-11
-8.10582e-12
-7.68552e-12
-7.70047e-12
-5.30311e-13
-7.15672e-12
5.95831e-12
-6.49022e-12
1.16852e-11
-5.72757e-12
1.65732e-11
-4.88767e-12
2.05728e-11
-3.99862e-12
2.36629e-11
-3.08828e-12
2.58468e-11
-2.18195e-12
2.71528e-11
-1.30445e-12
2.76278e-11
-4.74567e-13
2.73179e-11
3.08958e-13
2.63265e-11
9.89999e-13
2.4731e-11
1.59434e-12
2.26251e-11
2.10603e-12
2.01035e-11
2.52113e-12
1.72637e-11
2.83938e-12
1.4199e-11
3.06405e-12
1.10001e-11
3.19931e-12
7.74648e-12
3.25186e-12
4.51625e-12
3.22967e-12
1.37519e-12
3.14123e-12
-1.62595e-12
3.00092e-12
-4.4326e-12
2.80696e-12
-7.01283e-12
2.5808e-12
-9.33074e-12
2.31936e-12
-1.13665e-11
2.03552e-12
-1.31019e-11
1.73248e-12
-1.45349e-11
1.43035e-12
-1.5657e-11
1.12033e-12
-1.64739e-11
8.15238e-13
-1.69924e-11
5.18168e-13
-1.72259e-11
2.33765e-13
-1.71782e-11
-4.45803e-14
-1.68588e-11
-3.18596e-13
-1.62838e-11
-5.75841e-13
-1.54753e-11
-8.0938e-13
-1.44493e-11
-1.02657e-12
-1.32276e-11
-1.223e-12
-1.18402e-11
-1.39034e-12
-1.03121e-11
-1.52794e-12
-8.67199e-12
-1.64108e-12
-6.95054e-12
-1.72183e-12
-5.1715e-12
-1.7769e-12
-3.38445e-12
-1.78299e-12
-1.64155e-12
-1.74371e-12
-1.63498e-12
2.56085e-13
1.46294e-13
-2.01142e-13
1.61331e-12
-1.48293e-12
2.49423e-12
-2.84825e-12
2.3449e-12
-3.99039e-12
1.81187e-12
-4.94441e-12
1.4729e-12
-5.85516e-12
1.43411e-12
-6.84523e-12
1.60983e-12
-7.99761e-12
1.91335e-12
-9.36557e-12
2.2945e-12
-1.0985e-11
2.72752e-12
-1.28857e-11
3.20015e-12
-1.50927e-11
3.70943e-12
-1.76281e-11
4.24938e-12
-2.05137e-11
4.81797e-12
-2.37656e-11
5.41347e-12
-2.73985e-11
6.03237e-12
-3.14241e-11
6.66998e-12
-3.58485e-11
7.32045e-12
-4.06742e-11
7.97525e-12
-4.5898e-11
8.624e-12
-5.15082e-11
9.25494e-12
-5.74847e-11
9.85419e-12
-6.37972e-11
1.04064e-11
-7.04037e-11
1.08948e-11
-7.72521e-11
1.13007e-11
-8.42793e-11
1.16037e-11
-9.14088e-11
1.17834e-11
-9.85511e-11
1.18202e-11
-1.05604e-10
1.16939e-11
-1.12453e-10
1.13855e-11
-1.18974e-10
1.08781e-11
-1.25031e-10
1.01562e-11
-1.30487e-10
9.20978e-12
-1.35195e-10
8.0292e-12
-1.39007e-10
6.61456e-12
-1.41777e-10
4.96045e-12
-1.43377e-10
3.09435e-12
-1.43674e-10
1.02341e-12
-1.42575e-10
-1.22862e-12
-1.39977e-10
-3.6163e-12
-1.3583e-10
-6.09532e-12
-1.30115e-10
-8.61521e-12
-1.22847e-10
-1.1116e-11
-1.14086e-10
-1.35265e-11
-1.03923e-10
-1.57988e-11
-9.25024e-11
-1.78455e-11
-8.00024e-11
-1.96086e-11
-6.6641e-11
-2.1028e-11
-5.26641e-11
-2.2058e-11
-3.8342e-11
-2.26604e-11
-2.39551e-11
-2.28155e-11
-9.78778e-12
-2.25173e-11
3.88413e-12
-2.17779e-11
1.67942e-11
-2.06126e-11
2.87171e-11
-1.90821e-11
3.94533e-11
-1.72276e-11
4.8843e-11
-1.51164e-11
5.67664e-11
-1.2809e-11
6.31509e-11
-1.03811e-11
6.79682e-11
-7.90313e-12
7.12307e-11
-5.4427e-12
7.29831e-11
-3.05695e-12
7.33086e-11
-8.01825e-13
7.23356e-11
1.28043e-12
7.01766e-11
3.14903e-12
6.69862e-11
4.78403e-12
6.29228e-11
6.16854e-12
5.81477e-11
7.29434e-12
5.28241e-11
8.16196e-12
4.71065e-11
8.77914e-12
4.11462e-11
9.15928e-12
3.50781e-11
9.31896e-12
2.90283e-11
9.27941e-12
2.31057e-11
9.06483e-12
1.74102e-11
8.69731e-12
1.20163e-11
8.20137e-12
6.99565e-12
7.60176e-12
2.39289e-12
6.92017e-12
-1.75207e-12
6.17763e-12
-5.41837e-12
5.39377e-12
-8.5857e-12
4.59473e-12
-1.12487e-11
3.78431e-12
-1.34159e-11
2.98231e-12
-1.50956e-11
2.20035e-12
-1.62985e-11
1.43733e-12
-1.70475e-11
7.04268e-13
-1.73664e-11
1.00715e-15
-1.72817e-11
-6.61727e-13
-1.68143e-11
-1.2804e-12
-1.59998e-11
-1.8457e-12
-1.48691e-11
-2.35219e-12
-1.34633e-11
-2.79517e-12
-1.18229e-11
-3.17011e-12
-9.98481e-12
-3.47758e-12
-7.99447e-12
-3.71406e-12
-5.90754e-12
-3.86425e-12
-3.81557e-12
-3.87612e-12
-1.80457e-12
-3.76159e-12
-3.44274e-12
4.00298e-13
-2.51571e-13
7.9193e-13
1.21742e-12
3.96742e-13
2.89038e-12
-5.31688e-13
3.2724e-12
-1.63422e-12
2.91411e-12
-2.75448e-12
2.59246e-12
-3.89365e-12
2.57272e-12
-5.11522e-12
2.8293e-12
-6.48612e-12
3.28234e-12
-8.06463e-12
3.8727e-12
-9.90032e-12
4.56278e-12
-1.20328e-11
5.33427e-12
-1.44971e-11
6.17578e-12
-1.73254e-11
7.07765e-12
-2.05442e-11
8.03661e-12
-2.41759e-11
9.04482e-12
-2.82383e-11
1.00937e-11
-3.27453e-11
1.11769e-11
-3.77052e-11
1.2281e-11
-4.312e-11
1.33903e-11
-4.89852e-11
1.44897e-11
-5.52878e-11
1.55579e-11
-6.20053e-11
1.65717e-11
-6.91035e-11
1.75054e-11
-7.65369e-11
1.83305e-11
-8.42491e-11
1.9015e-11
-9.21698e-11
1.95257e-11
-1.00215e-10
1.98287e-11
-1.08284e-10
1.98897e-11
-1.16265e-10
1.96746e-11
-1.24029e-10
1.91506e-11
-1.31438e-10
1.8288e-11
-1.38341e-10
1.70604e-11
-1.44579e-10
1.54486e-11
-1.49984e-10
1.34358e-11
-1.54389e-10
1.10203e-11
-1.57631e-10
8.20421e-12
-1.59547e-10
5.01156e-12
-1.60002e-10
1.47867e-12
-1.58856e-10
-2.37454e-12
-1.56014e-10
-6.45871e-12
-1.51408e-10
-1.07024e-11
-1.45008e-10
-1.50154e-11
-1.36831e-10
-1.92945e-11
-1.2693e-10
-2.34286e-11
-1.15434e-10
-2.72963e-11
-1.02486e-10
-3.07942e-11
-8.82982e-11
-3.37958e-11
-7.31198e-11
-3.62061e-11
-5.72372e-11
-3.79407e-11
-4.09608e-11
-3.89359e-11
-2.46158e-11
-3.91589e-11
-8.53395e-12
-3.85984e-11
6.96078e-12
-3.72736e-11
2.159e-11
-3.52441e-11
3.50679e-11
-3.2562e-11
4.71701e-11
-2.93304e-11
5.77142e-11
-2.56602e-11
6.65747e-11
-2.16687e-11
7.36696e-11
-1.74759e-11
7.897e-11
-1.32036e-11
8.24957e-11
-8.96811e-12
8.43073e-11
-4.86818e-12
8.45061e-11
-9.99952e-13
8.32291e-11
2.5578e-12
8.06267e-11
5.75181e-12
7.68678e-11
8.54028e-12
7.21375e-11
1.08954e-11
6.662e-11
1.2808e-11
6.05008e-11
1.42799e-11
5.39544e-11
1.53245e-11
4.71502e-11
1.59637e-11
4.02397e-11
1.62306e-11
3.33646e-11
1.61565e-11
2.66444e-11
1.5784e-11
2.01892e-11
1.51526e-11
1.40835e-11
1.4305e-11
8.40401e-12
1.32816e-11
3.19956e-12
1.21222e-11
-1.47969e-12
1.0856e-11
-5.61195e-12
9.52645e-12
-9.18248e-12
8.16423e-12
-1.21796e-11
6.78546e-12
-1.46159e-11
5.41734e-12
-1.6496e-11
4.07809e-12
-1.78388e-11
2.78245e-12
-1.86703e-11
1.53416e-12
-1.90208e-11
3.49327e-13
-1.89213e-11
-7.63373e-13
-1.84061e-11
-1.79523e-12
-1.75084e-11
-2.74009e-12
-1.62735e-11
-3.58796e-12
-1.47349e-11
-4.33317e-12
-1.29398e-11
-4.96912e-12
-1.0919e-11
-5.49378e-12
-8.72707e-12
-5.90477e-12
-6.41848e-12
-6.17074e-12
-4.10207e-12
-6.1953e-12
-1.90704e-12
-5.95994e-12
-5.35161e-12
1.60643e-13
-4.14852e-13
6.83272e-13
6.94639e-13
8.53314e-13
2.71918e-12
4.90541e-13
3.63484e-12
-2.5331e-13
3.65708e-12
-1.21047e-12
3.54907e-12
-2.30551e-12
3.66618e-12
-3.54093e-12
4.06351e-12
-4.94803e-12
4.68989e-12
-6.57474e-12
5.49942e-12
-8.4619e-12
6.45127e-12
-1.06528e-11
7.52718e-12
-1.31859e-11
8.70928e-12
-1.60948e-11
9.98688e-12
-1.94098e-11
1.1352e-11
-2.3157e-11
1.27914e-11
-2.73587e-11
1.42949e-11
-3.20282e-11
1.58463e-11
-3.71767e-11
1.74293e-11
-4.28091e-11
1.90229e-11
-4.89209e-11
2.06021e-11
-5.55007e-11
2.21381e-11
-6.25266e-11
2.35982e-11
-6.99657e-11
2.49458e-11
-7.77741e-11
2.614e-11
-8.58952e-11
2.71365e-11
-9.4258e-11
2.78887e-11
-1.02777e-10
2.83477e-11
-1.11352e-10
2.84635e-11
-1.19864e-10
2.8187e-11
-1.28183e-10
2.74701e-11
-1.36163e-10
2.62683e-11
-1.43645e-10
2.45422e-11
-1.50457e-10
2.22619e-11
-1.56425e-10
1.94051e-11
-1.61363e-10
1.59597e-11
-1.65092e-10
1.19344e-11
-1.67439e-10
7.35888e-12
-1.68231e-10
2.27189e-12
-1.67336e-10
-3.26996e-12
-1.64627e-10
-9.16714e-12
-1.60024e-10
-1.5305e-11
-1.53486e-10
-2.15535e-11
-1.45018e-10
-2.77631e-11
-1.34681e-10
-3.37662e-11
-1.22581e-10
-3.93964e-11
-1.08899e-10
-4.44762e-11
-9.38493e-11
-4.88461e-11
-7.77041e-11
-5.23522e-11
-6.07759e-11
-5.48694e-11
-4.34069e-11
-5.6304e-11
-2.59576e-11
-5.66067e-11
-8.79249e-12
-5.57637e-11
7.73733e-12
-5.38055e-11
2.32976e-11
-5.08067e-11
3.76029e-11
-4.68686e-11
5.04052e-11
-4.21333e-11
6.15056e-11
-3.67618e-11
7.07684e-11
-3.09327e-11
7.81145e-11
-2.48229e-11
8.35212e-11
-1.86101e-11
8.7017e-11
-1.24623e-11
8.86786e-11
-6.52773e-12
8.86234e-11
-9.43037e-13
8.70078e-11
4.17269e-12
8.39984e-11
8.75863e-12
7.97844e-11
1.27494e-11
7.45685e-11
1.61078e-11
6.85522e-11
1.88223e-11
6.19324e-11
2.08991e-11
5.48991e-11
2.23588e-11
4.76285e-11
2.32359e-11
4.02811e-11
2.35775e-11
3.30047e-11
2.3434e-11
2.59206e-11
2.28646e-11
1.91461e-11
2.19275e-11
1.27642e-11
2.06852e-11
6.85046e-12
1.91962e-11
1.46213e-12
1.75111e-11
-3.36449e-12
1.56818e-11
-7.60526e-12
1.3771e-11
-1.1242e-11
1.17985e-11
-1.42715e-11
9.81418e-12
-1.67006e-11
7.84569e-12
-1.85457e-11
5.92088e-12
-1.9823e-11
4.05862e-12
-2.05702e-11
2.28129e-12
-2.08136e-11
5.96756e-13
-2.05904e-11
-9.83288e-13
-1.99455e-11
-2.44499e-12
-1.89073e-11
-3.77646e-12
-1.75274e-11
-4.97084e-12
-1.58362e-11
-6.02169e-12
-1.38809e-11
-6.92838e-12
-1.16967e-11
-7.67995e-12
-9.33396e-12
-8.27245e-12
-6.84792e-12
-8.65663e-12
-4.35079e-12
-8.69292e-12
-1.99434e-12
-8.32045e-12
-7.34397e-12
-1.51394e-13
-2.63099e-13
1.58194e-13
3.8358e-13
5.11748e-13
2.36515e-12
5.39988e-13
3.60571e-12
1.84531e-13
4.01197e-12
-4.6994e-13
4.20221e-12
-1.35434e-12
4.5498e-12
-2.43253e-12
5.1428e-12
-3.72763e-12
5.98557e-12
-5.26064e-12
7.03362e-12
-7.07439e-12
8.26668e-12
-9.20484e-12
9.65768e-12
-1.16871e-11
1.11916e-11
-1.45573e-11
1.28577e-11
-1.78467e-11
1.46413e-11
-2.15836e-11
1.65279e-11
-2.57899e-11
1.85006e-11
-3.0487e-11
2.05422e-11
-3.5687e-11
2.26287e-11
-4.13959e-11
2.47323e-11
-4.76148e-11
2.68217e-11
-5.4335e-11
2.88588e-11
-6.15375e-11
3.08016e-11
-6.91933e-11
3.26024e-11
-7.72613e-11
3.42083e-11
-8.56868e-11
3.55623e-11
-9.4401e-11
3.66029e-11
-1.03319e-10
3.72653e-11
-1.1234e-10
3.74833e-11
-1.21345e-10
3.71906e-11
-1.30198e-10
3.63227e-11
-1.38747e-10
3.48178e-11
-1.46827e-10
3.2622e-11
-1.54254e-10
2.96908e-11
-1.60841e-10
2.59929e-11
-1.66389e-10
2.15081e-11
-1.70696e-10
1.62434e-11
-1.73564e-10
1.02285e-11
-1.7482e-10
3.52901e-12
-1.74282e-10
-3.80808e-12
-1.71813e-10
-1.16352e-11
-1.67311e-10
-1.98063e-11
-1.60715e-10
-2.81479e-11
-1.52021e-10
-3.64576e-11
-1.41276e-10
-4.4511e-11
-1.28602e-10
-5.2071e-11
-1.1416e-10
-5.89196e-11
-9.8206e-11
-6.48017e-11
-8.10276e-11
-6.95323e-11
-6.29729e-11
-7.29244e-11
-4.44204e-11
-7.48558e-11
-2.57749e-11
-7.52518e-11
-7.44348e-12
-7.40963e-11
1.01805e-11
-7.14316e-11
2.67303e-11
-6.73583e-11
4.18839e-11
-6.20232e-11
5.53692e-11
-5.56196e-11
6.69808e-11
-4.83753e-11
7.65719e-11
-4.05246e-11
8.4062e-11
-3.23119e-11
8.94438e-11
-2.39899e-11
9.27602e-11
-1.57767e-11
9.41062e-11
-7.87309e-12
9.36245e-11
-4.61581e-13
9.14874e-11
6.30742e-12
8.78959e-11
1.23472e-11
8.30642e-11
1.7578e-11
7.72113e-11
2.1959e-11
7.05612e-11
2.5473e-11
6.33243e-11
2.81351e-11
5.57054e-11
2.99767e-11
4.78925e-11
3.10501e-11
4.00518e-11
3.1416e-11
3.23359e-11
3.1149e-11
2.48736e-11
3.03245e-11
1.77746e-11
2.90279e-11
1.113e-11
2.73317e-11
5.00645e-12
2.53186e-11
-5.36897e-13
2.30558e-11
-5.47923e-12
2.06214e-11
-9.78147e-12
1.80712e-11
-1.34409e-11
1.54566e-11
-1.64595e-11
1.28319e-11
-1.88483e-11
1.02329e-11
-2.06197e-11
7.69615e-12
-2.18125e-11
5.25474e-12
-2.24489e-11
2.92096e-12
-2.25712e-11
7.14191e-13
-2.22142e-11
-1.34072e-12
-2.14252e-11
-3.23617e-12
-2.02403e-11
-4.96131e-12
-1.87059e-11
-6.50764e-12
-1.68618e-11
-7.86923e-12
-1.47423e-11
-9.04323e-12
-1.23964e-11
-1.00258e-11
-9.87054e-12
-1.0802e-11
-7.22242e-12
-1.13068e-11
-4.56498e-12
-1.13489e-11
-2.06539e-12
-1.08247e-11
-9.4131e-12
-3.08205e-13
4.46018e-14
-1.82081e-13
2.57848e-13
1.93043e-13
1.98947e-12
4.36282e-13
3.36208e-12
3.82436e-13
4.06455e-12
2.74324e-14
4.55664e-12
-5.85973e-13
5.16474e-12
-1.44667e-12
6.00466e-12
-2.55034e-12
7.09062e-12
-3.91934e-12
8.40411e-12
-5.58197e-12
9.92893e-12
-7.58125e-12
1.16563e-11
-9.9465e-12
1.35571e-11
-1.27126e-11
1.56237e-11
-1.59123e-11
1.78404e-11
-1.95759e-11
2.01906e-11
-2.3732e-11
2.26549e-11
-2.84014e-11
2.52102e-11
-3.35998e-11
2.78271e-11
-3.93408e-11
3.04739e-11
-4.56296e-11
3.3111e-11
-5.24612e-11
3.56911e-11
-5.98223e-11
3.81634e-11
-6.76887e-11
4.04692e-11
-7.60234e-11
4.25437e-11
-8.4776e-11
4.43156e-11
-9.38809e-11
4.57074e-11
-1.03255e-10
4.66378e-11
-1.12796e-10
4.70229e-11
-1.22384e-10
4.67776e-11
-1.3188e-10
4.58179e-11
-1.41125e-10
4.40633e-11
-1.49944e-10
4.14411e-11
-1.5814e-10
3.78886e-11
-1.65512e-10
3.33652e-11
-1.71837e-10
2.78351e-11
-1.76892e-10
2.12995e-11
-1.80453e-10
1.37918e-11
-1.82305e-10
5.38179e-12
-1.82259e-10
-3.85322e-12
-1.80129e-10
-1.37629e-11
-1.75789e-10
-2.41448e-11
-1.69155e-10
-3.47819e-11
-1.60199e-10
-4.54132e-11
-1.4896e-10
-5.57512e-11
-1.35544e-10
-6.54876e-11
-1.20161e-10
-7.43049e-11
-1.03044e-10
-8.19207e-11
-8.45484e-11
-8.80291e-11
-6.50408e-11
-9.2432e-11
-4.49649e-11
-9.49315e-11
-2.47782e-11
-9.54389e-11
-4.94627e-12
-9.39295e-11
1.40818e-11
-9.0461e-11
3.18891e-11
-8.51665e-11
4.81112e-11
-7.82461e-11
6.2448e-11
-6.99564e-11
7.46684e-11
-6.05952e-11
8.46221e-11
-5.04767e-11
9.22476e-11
-3.99353e-11
9.75348e-11
-2.92764e-11
1.00554e-10
-1.87964e-11
1.0143e-10
-8.75013e-12
1.00327e-10
6.40274e-13
9.74743e-11
9.15917e-12
9.30883e-11
1.67323e-11
8.74175e-11
2.32482e-11
8.07116e-11
2.86631e-11
7.32167e-11
3.29673e-11
6.51682e-11
3.61827e-11
5.67848e-11
3.8358e-11
4.82686e-11
3.9566e-11
3.97962e-11
3.98878e-11
3.15224e-11
3.94215e-11
2.35824e-11
3.82656e-11
1.60851e-11
3.65249e-11
9.11628e-12
3.43024e-11
2.74046e-12
3.16911e-11
-2.99173e-12
2.87845e-11
-8.04693e-12
2.56784e-11
-1.24157e-11
2.24366e-11
-1.60949e-11
1.91341e-11
-1.9085e-11
1.58252e-11
-2.14133e-11
1.25616e-11
-2.30979e-11
9.38488e-12
-2.41763e-11
6.3297e-12
-2.46798e-11
3.42632e-12
-2.46476e-11
6.83541e-13
-2.41293e-11
-1.85695e-12
-2.31657e-11
-4.19835e-12
-2.18053e-11
-6.32554e-12
-2.00839e-11
-8.22978e-12
-1.80536e-11
-9.905e-12
-1.57452e-11
-1.1349e-11
-1.32073e-11
-1.2562e-11
-1.04899e-11
-1.3524e-11
-7.65148e-12
-1.41503e-11
-4.80945e-12
-1.4195e-11
-2.14985e-12
-1.34855e-11
-1.15626e-11
-3.03596e-13
3.48525e-13
-2.30039e-13
1.84829e-13
1.71932e-13
1.58756e-12
5.56614e-13
2.97616e-12
7.30568e-13
3.8898e-12
6.40915e-13
4.64769e-12
2.86544e-13
5.52033e-12
-3.2788e-13
6.62054e-12
-1.20229e-12
7.96649e-12
-2.36496e-12
9.56618e-12
-3.8457e-12
1.14085e-11
-5.66178e-12
1.34722e-11
-7.86367e-12
1.57588e-11
-1.0483e-11
1.82425e-11
-1.35533e-11
2.09098e-11
-1.71087e-11
2.37442e-11
-2.11785e-11
2.67229e-11
-2.57886e-11
2.982e-11
-3.09647e-11
3.30037e-11
-3.67229e-11
3.62323e-11
-4.30734e-11
3.94618e-11
-5.00185e-11
4.26366e-11
-5.75516e-11
4.56972e-11
-6.56544e-11
4.85734e-11
-7.42964e-11
5.11874e-11
-8.34329e-11
5.34527e-11
-9.30023e-11
5.52756e-11
-1.02924e-10
5.65571e-11
-1.13096e-10
5.71937e-11
-1.23398e-10
5.70789e-11
-1.33687e-10
5.61065e-11
-1.43797e-10
5.41739e-11
-1.5354e-10
5.11853e-11
-1.62708e-10
4.70575e-11
-1.7107e-10
4.17281e-11
-1.78385e-10
3.51524e-11
-1.84402e-10
2.73176e-11
-1.88863e-10
1.82547e-11
-1.91506e-10
8.02622e-12
-1.92118e-10
-3.24008e-12
-1.90455e-10
-1.54241e-11
-1.86358e-10
-2.824e-11
-1.7971e-10
-4.14302e-11
-1.70454e-10
-5.467e-11
-1.58612e-10
-6.75945e-11
-1.44295e-10
-7.98061e-11
-1.27696e-10
-9.09047e-11
-1.09115e-10
-1.00504e-10
-8.8902e-11
-1.08243e-10
-6.75358e-11
-1.13798e-10
-4.54955e-11
-1.16972e-10
-2.33198e-11
-1.17615e-10
-1.55364e-12
-1.15696e-10
1.92787e-11
-1.11294e-10
3.86947e-11
-1.04582e-10
5.62738e-11
-9.58242e-11
7.16773e-11
-8.53578e-11
8.46516e-11
-7.35671e-11
9.50466e-11
-6.08705e-11
1.02791e-10
-4.76799e-11
1.07909e-10
-3.43972e-11
1.10503e-10
-2.13909e-11
1.10732e-10
-8.97936e-12
1.08822e-10
2.55191e-12
1.05014e-10
1.29671e-11
9.95875e-11
2.21571e-11
9.2829e-11
3.00056e-11
8.50237e-11
3.64661e-11
7.64499e-11
4.15391e-11
6.73703e-11
4.52619e-11
5.80239e-11
4.77047e-11
4.86256e-11
4.89628e-11
3.93669e-11
4.91473e-11
3.04059e-11
4.838e-11
2.18814e-11
4.67909e-11
1.38978e-11
4.4507e-11
6.54093e-12
4.16579e-11
-1.25382e-13
3.8358e-11
-6.074e-12
3.47286e-11
-1.12662e-11
3.08724e-11
-1.57041e-11
2.68754e-11
-1.93885e-11
2.28213e-11
-2.23395e-11
1.87784e-11
-2.45845e-11
1.48036e-11
-2.61478e-11
1.09516e-11
-2.70742e-11
7.2577e-12
-2.74055e-11
3.75675e-12
-2.71826e-11
4.62976e-13
-2.64642e-11
-2.57889e-12
-2.52874e-11
-5.37404e-12
-2.37045e-11
-7.90988e-12
-2.17601e-11
-1.01774e-11
-1.94982e-11
-1.21722e-11
-1.69624e-11
-1.38887e-11
-1.41953e-11
-1.53291e-11
-1.12457e-11
-1.64723e-11
-8.17894e-12
-1.7217e-11
-5.12006e-12
-1.7256e-11
-2.26332e-12
-1.63452e-11
-1.38269e-11
-2.10328e-13
5.59164e-13
-5.30397e-14
2.82551e-14
4.27444e-13
1.10594e-12
9.53535e-13
2.44917e-12
1.33096e-12
3.51323e-12
1.48323e-12
4.49613e-12
1.38824e-12
5.61649e-12
1.03539e-12
6.97472e-12
4.03121e-13
8.59809e-12
-5.27157e-13
1.04951e-11
-1.77681e-12
1.26578e-11
-3.38727e-12
1.50825e-11
-5.38585e-12
1.7757e-11
-7.82002e-12
2.06761e-11
-1.0726e-11
2.38144e-11
-1.41378e-11
2.71546e-11
-1.80916e-11
3.06767e-11
-2.26204e-11
3.43495e-11
-2.77523e-11
3.81358e-11
-3.35144e-11
4.19941e-11
-3.99215e-11
4.58686e-11
-4.69856e-11
4.97008e-11
-5.4707e-11
5.34199e-11
-6.30755e-11
5.69445e-11
-7.20695e-11
6.01832e-11
-8.16509e-11
6.3034e-11
-9.17636e-11
6.53867e-11
-1.02331e-10
6.71226e-11
-1.13254e-10
6.8116e-11
-1.24412e-10
6.82368e-11
-1.35658e-10
6.73532e-11
-1.46819e-10
6.53359e-11
-1.57694e-10
6.20611e-11
-1.68056e-10
5.74204e-11
-1.77652e-10
5.13249e-11
-1.86211e-10
4.3713e-11
-1.93442e-10
3.45496e-11
-1.99041e-10
2.38545e-11
-2.02707e-10
1.16939e-11
-2.04198e-10
-1.74602e-12
-2.03161e-10
-1.64595e-11
-1.99424e-10
-3.19778e-11
-1.92813e-10
-4.8042e-11
-1.83234e-10
-6.42496e-11
-1.70684e-10
-8.01444e-11
-1.55261e-10
-9.52291e-11
-1.37179e-10
-1.08988e-10
-1.16749e-10
-1.20934e-10
-9.44105e-11
-1.30581e-10
-7.06732e-11
-1.37535e-10
-4.61399e-11
-1.41504e-10
-2.1443e-11
-1.42311e-10
2.77332e-12
-1.39912e-10
2.58835e-11
-1.34403e-10
4.73187e-11
-1.26015e-10
6.65938e-11
-1.15097e-10
8.33092e-11
-1.02071e-10
9.71977e-11
-8.74548e-11
1.08089e-10
-7.17631e-11
1.15937e-10
-5.55297e-11
1.20793e-10
-3.92541e-11
1.228e-10
-2.33974e-11
1.22176e-10
-8.35277e-12
1.19203e-10
5.52515e-12
1.14172e-10
1.79966e-11
1.07421e-10
2.89056e-11
9.92916e-11
3.81332e-11
9.01117e-11
4.56448e-11
8.02004e-11
5.14499e-11
6.98495e-11
5.5613e-11
5.93244e-11
5.82312e-11
4.88558e-11
5.9429e-11
3.86474e-11
5.93544e-11
2.88658e-11
5.81601e-11
1.96462e-11
5.60091e-11
1.10946e-11
5.30585e-11
3.28788e-12
4.94631e-11
-3.71141e-12
4.53577e-11
-9.88743e-12
4.09077e-11
-1.52239e-11
3.62123e-11
-1.97294e-11
3.13787e-11
-2.34106e-11
2.65031e-11
-2.62958e-11
2.16661e-11
-2.84205e-11
1.693e-11
-2.98285e-11
1.23605e-11
-3.05647e-11
7.99446e-12
-3.06813e-11
3.86938e-12
-3.02254e-11
9.89842e-15
-2.92545e-11
-3.54572e-12
-2.78208e-11
-6.80708e-12
-2.59679e-11
-9.76074e-12
-2.37522e-11
-1.23926e-11
-2.12145e-11
-1.47068e-11
-1.84072e-11
-1.66986e-11
-1.53686e-11
-1.83668e-11
-1.21488e-11
-1.96932e-11
-8.81217e-12
-2.05543e-11
-5.48777e-12
-2.05854e-11
-2.3982e-12
-1.94345e-11
-1.6226e-11
-6.08719e-14
6.20516e-13
2.50238e-13
-2.83901e-13
8.79906e-13
4.75279e-13
1.57874e-12
1.75077e-12
2.1727e-12
2.9192e-12
2.57158e-12
4.09785e-12
2.74191e-12
5.44712e-12
2.66054e-12
7.05527e-12
2.30293e-12
8.95431e-12
1.64439e-12
1.11533e-11
6.49415e-13
1.36529e-11
-7.16495e-13
1.64485e-11
-2.48774e-12
1.95283e-11
-4.69782e-12
2.28855e-11
-7.396e-12
2.65119e-11
-1.0629e-11
3.03885e-11
-1.44333e-11
3.44826e-11
-1.88501e-11
3.87672e-11
-2.39168e-11
4.32022e-11
-2.96631e-11
4.77395e-11
-3.61174e-11
5.23221e-11
-4.32987e-11
5.68828e-11
-5.12181e-11
6.13417e-11
-5.98767e-11
6.56056e-11
-6.9262e-11
6.95695e-11
-7.93449e-11
7.31163e-11
-9.00767e-11
7.61174e-11
-1.01388e-10
7.84327e-11
-1.13184e-10
7.99122e-11
-1.25345e-10
8.03987e-11
-1.37721e-10
7.97311e-11
-1.50132e-10
7.77481e-11
-1.62365e-10
7.42942e-11
-1.74171e-10
6.92271e-11
-1.85271e-10
6.24247e-11
-1.95362e-10
5.38044e-11
-2.04102e-10
4.32904e-11
-2.11148e-10
3.09017e-11
-2.16148e-10
1.66958e-11
-2.18704e-10
8.11891e-13
-2.1854e-10
-1.66225e-11
-2.15328e-10
-3.51902e-11
-2.08843e-10
-5.45267e-11
-1.98941e-10
-7.41517e-11
-1.85579e-10
-9.3505e-11
-1.6884e-10
-1.11968e-10
-1.48943e-10
-1.28886e-10
-1.26256e-10
-1.43622e-10
-1.01267e-10
-1.55569e-10
-7.45914e-11
-1.64209e-10
-4.69437e-11
-1.69151e-10
-1.90909e-11
-1.70164e-10
8.18444e-12
-1.67186e-10
3.41363e-11
-1.60353e-10
5.80741e-11
-1.49951e-10
7.94185e-11
-1.3644e-10
9.77337e-11
-1.20387e-10
1.12695e-10
-1.02416e-10
1.24138e-10
-8.32069e-11
1.32042e-10
-6.34327e-11
1.36502e-10
-4.37118e-11
1.37714e-10
-2.46078e-11
1.35967e-10
-6.60604e-12
1.31621e-10
9.86984e-12
1.25042e-10
2.45734e-11
1.16639e-10
3.7307e-11
1.0681e-10
4.79622e-11
9.59439e-11
5.65104e-11
8.44017e-11
6.29918e-11
7.25154e-11
6.75e-11
6.05772e-11
7.01694e-11
4.88383e-11
7.11669e-11
3.75121e-11
7.06767e-11
2.67724e-11
6.88986e-11
1.67542e-11
6.60264e-11
7.55503e-12
6.22555e-11
-7.43559e-13
5.77654e-11
-8.12591e-12
5.27409e-11
-1.45551e-11
4.73382e-11
-2.00319e-11
4.16902e-11
-2.45772e-11
3.59255e-11
-2.82203e-11
3.01453e-11
-3.10018e-11
2.44446e-11
-3.29705e-11
1.89006e-11
-3.4177e-11
1.35659e-11
-3.46766e-11
8.49398e-12
-3.45279e-11
3.72374e-12
-3.37869e-11
-7.32045e-13
-3.25124e-11
-4.81874e-12
-3.07674e-11
-8.55594e-12
-2.86002e-11
-1.19274e-11
-2.60657e-11
-1.49304e-11
-2.32083e-11
-1.75614e-11
-2.00836e-11
-1.98267e-11
-1.67317e-11
-2.17217e-11
-1.31999e-11
-2.32244e-11
-9.55721e-12
-2.41976e-11
-5.93363e-12
-2.4213e-11
-2.56339e-12
-2.28093e-11
-1.87881e-11
1.06325e-13
5.13535e-13
6.36679e-13
-8.15075e-13
1.47148e-12
-3.59408e-13
2.38834e-12
8.33341e-13
3.22248e-12
2.08518e-12
3.89218e-12
3.42866e-12
4.34694e-12
4.99125e-12
4.55999e-12
6.84074e-12
4.50285e-12
9.0113e-12
4.14347e-12
1.15132e-11
3.44656e-12
1.43503e-11
2.37364e-12
1.75219e-11
8.78941e-13
2.10226e-11
-1.08056e-12
2.48446e-11
-3.54344e-12
2.8976e-11
-6.55326e-12
3.34007e-11
-1.01657e-11
3.80967e-11
-1.44346e-11
4.30365e-11
-1.9402e-11
4.81689e-11
-2.5108e-11
5.34443e-11
-3.15898e-11
5.88037e-11
-3.88782e-11
6.41728e-11
-4.69963e-11
6.94622e-11
-5.59591e-11
7.45702e-11
-6.57658e-11
7.93766e-11
-7.63987e-11
8.37492e-11
-8.78198e-11
8.75383e-11
-9.99687e-11
9.05818e-11
-1.12758e-10
9.27029e-11
-1.26072e-10
9.37143e-11
-1.39761e-10
9.34207e-11
-1.53637e-10
9.16242e-11
-1.67474e-10
8.81306e-11
-1.81003e-10
8.27564e-11
-1.93917e-10
7.53389e-11
-2.05862e-10
6.57489e-11
-2.16465e-10
5.38943e-11
-2.25301e-10
3.97404e-11
-2.31939e-10
2.33352e-11
-2.35971e-10
4.84549e-12
-2.36938e-10
-1.56553e-11
-2.34469e-10
-3.76581e-11
-2.28249e-10
-6.07453e-11
-2.18058e-10
-8.43418e-11
-2.038e-10
-1.07763e-10
-1.85528e-10
-1.3024e-10
-1.63463e-10
-1.50951e-10
-1.38024e-10
-1.6906e-10
-1.09779e-10
-1.83812e-10
-7.94643e-11
-1.94523e-10
-4.7949e-11
-2.00666e-10
-1.61782e-11
-2.01934e-10
1.48994e-11
-1.98263e-10
4.43557e-11
-1.89808e-10
7.13708e-11
-1.76966e-10
9.52481e-11
-1.60318e-10
1.15455e-10
-1.40594e-10
1.31655e-10
-1.18615e-10
1.43686e-10
-9.52361e-11
1.51556e-10
-7.12999e-11
1.55421e-10
-4.75745e-11
1.55558e-10
-2.47452e-11
1.52357e-10
-3.40493e-12
1.46262e-10
1.59633e-11
1.37744e-10
3.30905e-11
1.27288e-10
4.77615e-11
1.15376e-10
5.98734e-11
1.02461e-10
6.94257e-11
8.89608e-11
7.64913e-11
7.52484e-11
8.12139e-11
6.16429e-11
8.37727e-11
4.84225e-11
8.43873e-11
3.58064e-11
8.32908e-11
2.39721e-11
8.07303e-11
1.30526e-11
7.69471e-11
3.13429e-12
7.21726e-11
-5.70736e-12
6.66075e-11
-1.34802e-11
6.05132e-11
-2.01555e-11
5.40155e-11
-2.576e-11
4.72904e-11
-3.03226e-11
4.04869e-11
-3.38915e-11
3.37176e-11
-3.65256e-11
2.70768e-11
-3.82836e-11
2.06575e-11
-3.9229e-11
1.45166e-11
-3.94328e-11
8.70139e-12
-3.89578e-11
3.24948e-12
-3.78779e-11
-1.81176e-12
-3.62506e-11
-6.44926e-12
-3.4137e-11
-1.0669e-11
-3.16034e-11
-1.44639e-11
-2.86983e-11
-1.78327e-11
-2.5476e-11
-2.07819e-11
-2.19882e-11
-2.33119e-11
-1.82774e-11
-2.54308e-11
-1.43957e-11
-2.71065e-11
-1.04068e-11
-2.81897e-11
-6.43701e-12
-2.81796e-11
-2.75602e-12
-2.64903e-11
-2.15435e-11
2.9003e-13
2.22909e-13
1.07582e-12
-1.60053e-12
2.16782e-12
-1.45222e-12
3.35002e-12
-3.48685e-13
4.46018e-12
9.75301e-13
5.42323e-12
2.46422e-12
6.19355e-12
4.21933e-12
6.73211e-12
6.30193e-12
7.00655e-12
8.73729e-12
6.98083e-12
1.15396e-11
6.6175e-12
1.47143e-11
5.8732e-12
1.82659e-11
4.70161e-12
2.21937e-11
3.05558e-12
2.64915e-11
8.81426e-13
3.11525e-11
-1.87299e-12
3.61573e-11
-5.25796e-12
4.14829e-11
-9.32564e-12
4.71043e-11
-1.41526e-11
5.2995e-11
-1.97787e-11
5.90699e-11
-2.62564e-11
6.52822e-11
-3.36297e-11
7.15481e-11
-4.19376e-11
7.7772e-11
-5.12063e-11
8.38401e-11
-6.14528e-11
8.9624e-11
-7.26731e-11
9.49701e-11
-8.4845e-11
9.97107e-11
-9.79196e-11
1.03657e-10
-1.11821e-10
1.06606e-10
-1.2644e-10
1.08334e-10
-1.41628e-10
1.08609e-10
-1.57195e-10
1.07191e-10
-1.72903e-10
1.03838e-10
-1.88463e-10
9.8316e-11
-2.03534e-10
9.04101e-11
-2.1772e-10
7.99355e-11
-2.30592e-10
6.67675e-11
-2.4165e-10
5.08003e-11
-2.50386e-10
3.20734e-11
-2.56241e-10
1.07025e-11
-2.58736e-10
-1.31594e-11
-2.57319e-10
-3.9073e-11
-2.51576e-10
-6.64876e-11
-2.41185e-10
-9.4732e-11
-2.25971e-10
-1.22978e-10
-2.05939e-10
-1.50273e-10
-1.8131e-10
-1.7558e-10
-1.52539e-10
-1.9783e-10
-1.20301e-10
-2.16049e-10
-8.55117e-11
-2.29312e-10
-4.92173e-11
-2.36961e-10
-1.25846e-11
-2.38568e-10
2.31945e-11
-2.34043e-10
5.69792e-11
-2.23594e-10
8.77451e-11
-2.07733e-10
1.14666e-10
-1.87237e-10
1.37121e-10
-1.63046e-10
1.54728e-10
-1.36219e-10
1.67341e-10
-1.07847e-10
1.75025e-10
-7.89834e-11
1.78023e-10
-5.05708e-11
1.76729e-10
-2.34519e-11
1.71627e-10
1.69674e-12
1.63326e-10
2.42639e-11
1.52384e-10
4.40311e-11
1.39403e-10
6.07406e-11
1.24955e-10
7.43192e-11
1.09581e-10
8.48012e-11
9.37505e-11
9.23234e-11
7.78891e-11
9.70773e-11
6.23462e-11
9.93145e-11
4.74177e-11
9.93131e-11
3.3336e-11
9.73726e-11
2.02762e-11
9.37909e-11
8.36311e-12
8.88571e-11
-2.30881e-12
8.2843e-11
-1.17539e-11
7.6053e-11
-1.99174e-11
6.86728e-11
-2.68292e-11
6.09279e-11
-3.25154e-11
5.29812e-11
-3.70549e-11
4.50212e-11
-4.04995e-11
3.71586e-11
-4.29202e-11
2.95036e-11
-4.4403e-11
2.21424e-11
-4.50247e-11
1.5138e-11
-4.48673e-11
8.54457e-12
-4.40045e-11
2.38698e-12
-4.25092e-11
-3.30377e-12
-4.04681e-11
-8.49609e-12
-3.79329e-11
-1.32018e-11
-3.4974e-11
-1.74213e-11
-3.16474e-11
-2.11581e-11
-2.80125e-11
-2.44151e-11
-2.41179e-11
-2.7208e-11
-2.00061e-11
-2.95389e-11
-1.57318e-11
-3.13818e-11
-1.13557e-11
-3.25685e-11
-7.01211e-12
-3.25292e-11
-2.97615e-12
-3.0523e-11
-2.45201e-11
4.75236e-13
-2.52253e-13
1.55301e-12
-2.67862e-12
2.95078e-12
-2.84949e-12
4.43286e-12
-1.8303e-12
5.86161e-12
-4.54881e-13
7.15458e-12
1.16966e-12
8.2727e-12
3.10083e-12
9.16911e-12
5.40569e-12
9.81046e-12
8.09642e-12
1.01583e-11
1.11923e-11
1.01695e-11
1.47027e-11
9.799e-12
1.86355e-11
8.99845e-12
2.29943e-11
7.71307e-12
2.77783e-11
5.88522e-12
3.29819e-11
3.45083e-12
3.85928e-11
3.4016e-13
4.45942e-11
-3.50194e-12
5.09464e-11
-8.11259e-12
5.76056e-11
-1.36011e-11
6.45591e-11
-2.00286e-11
7.17113e-11
-2.74518e-11
7.89729e-11
-3.59218e-11
8.62435e-11
-4.54857e-11
9.34058e-11
-5.61744e-11
1.00314e-10
-6.80072e-11
1.06804e-10
-8.09781e-11
1.12682e-10
-9.50567e-11
1.17737e-10
-1.10181e-10
1.21732e-10
-1.26255e-10
1.24408e-10
-1.43136e-10
1.2549e-10
-1.60633e-10
1.24687e-10
-1.785e-10
1.21705e-10
-1.9643e-10
1.16246e-10
-2.1405e-10
1.08031e-10
-2.3092e-10
9.68068e-11
-2.46528e-10
8.2377e-11
-2.60325e-10
6.45997e-11
-2.71663e-10
4.34132e-11
-2.79906e-10
1.89473e-11
-2.84403e-10
-8.66025e-12
-2.84449e-10
-3.90263e-11
-2.79491e-10
-7.14466e-11
-2.69065e-10
-1.05159e-10
-2.52879e-10
-1.39166e-10
-2.30862e-10
-1.72291e-10
-2.03215e-10
-2.03226e-10
-1.70441e-10
-2.30604e-10
-1.33353e-10
-2.53137e-10
-9.30346e-11
-2.69631e-10
-5.0817e-11
-2.7918e-10
-8.15764e-12
-2.81229e-10
3.34323e-11
-2.75635e-10
7.25291e-11
-2.62691e-10
1.07885e-10
-2.43087e-10
1.38467e-10
-2.17816e-10
1.63545e-10
-1.88122e-10
1.82719e-10
-1.55394e-10
1.9586e-10
-1.20987e-10
2.03124e-10
-8.62465e-11
2.04874e-10
-5.23198e-11
2.01641e-10
-2.02197e-11
1.94138e-10
9.19796e-12
1.83024e-10
3.5375e-11
1.6907e-10
5.79844e-11
1.52995e-10
7.68144e-11
1.35491e-10
9.18256e-11
1.17172e-10
1.0312e-10
9.85982e-11
1.109e-10
8.02281e-11
1.15447e-10
6.24565e-11
1.17088e-10
4.55902e-11
1.1618e-10
2.98634e-11
1.13097e-10
1.54507e-11
1.08205e-10
2.46671e-12
1.0184e-10
-9.05034e-12
9.43581e-11