/*--------------------------------*- C++ -*----------------------------------*\
| =========                 |                                                 |
| \\      /  F ield         | OpenFOAM: The Open Source CFD Toolbox           |
|  \\    /   O peration     | Version:  2312                                  |
|   \\  /    A nd           | Website:  www.openfoam.com                      |
|    \\/     M anipulation  |                                                 |
\*---------------------------------------------------------------------------*/
FoamFile
{
    version     2.0;
    format      ascii;
    arch        "LSB;label=32;scalar=64";
    class       volVectorField;
    location    "0.35";
    object      U;
}
// * * * * * * * * * * * * * * * * * * * * * * * * * * * * * * * * * * * * * //

dimensions      [0 1 -1 0 0 0 0];

internalField   nonuniform List<vector> 
10000
(
(6.3533e-08 2.12524e-07 0)
(-3.12929e-07 3.12252e-07 0)
(-8.30494e-07 2.19844e-07 0)
(-1.34627e-06 1.46597e-07 0)
(-1.66168e-06 9.6343e-08 0)
(-1.88374e-06 7.89454e-08 0)
(-2.08042e-06 8.53481e-08 0)
(-2.3025e-06 1.02576e-07 0)
(-2.57625e-06 1.2394e-07 0)
(-2.91388e-06 1.46933e-07 0)
(-3.32132e-06 1.71198e-07 0)
(-3.80269e-06 1.96549e-07 0)
(-4.36218e-06 2.22758e-07 0)
(-5.00382e-06 2.50414e-07 0)
(-5.73167e-06 2.79221e-07 0)
(-6.55004e-06 3.08918e-07 0)
(-7.46251e-06 3.3973e-07 0)
(-8.47195e-06 3.71342e-07 0)
(-9.5807e-06 4.03691e-07 0)
(-1.07899e-05 4.36567e-07 0)
(-1.20997e-05 4.69387e-07 0)
(-1.35089e-05 5.01494e-07 0)
(-1.50143e-05 5.32365e-07 0)
(-1.66102e-05 5.61365e-07 0)
(-1.82882e-05 5.87783e-07 0)
(-2.00372e-05 6.10863e-07 0)
(-2.18435e-05 6.29682e-07 0)
(-2.36907e-05 6.43217e-07 0)
(-2.55593e-05 6.50496e-07 0)
(-2.74264e-05 6.50632e-07 0)
(-2.92658e-05 6.42677e-07 0)
(-3.10492e-05 6.25994e-07 0)
(-3.27446e-05 6.00072e-07 0)
(-3.43191e-05 5.6365e-07 0)
(-3.57391e-05 5.16405e-07 0)
(-3.69686e-05 4.59145e-07 0)
(-3.79704e-05 3.91294e-07 0)
(-3.87107e-05 3.12378e-07 0)
(-3.91598e-05 2.24009e-07 0)
(-3.92819e-05 1.30029e-07 0)
(-3.90531e-05 2.2606e-08 0)
(-3.84611e-05 -9.16019e-08 0)
(-3.74915e-05 -2.09132e-07 0)
(-3.61423e-05 -3.27486e-07 0)
(-3.44166e-05 -4.42945e-07 0)
(-3.23305e-05 -5.54543e-07 0)
(-2.99133e-05 -6.57605e-07 0)
(-2.71999e-05 -7.4934e-07 0)
(-2.42367e-05 -8.2687e-07 0)
(-2.10769e-05 -8.87673e-07 0)
(-1.77817e-05 -9.30406e-07 0)
(-1.44169e-05 -9.5341e-07 0)
(-1.10499e-05 -9.56038e-07 0)
(-7.74842e-06 -9.38605e-07 0)
(-4.57807e-06 -9.01374e-07 0)
(-1.59877e-06 -8.4735e-07 0)
(1.13862e-06 -7.77991e-07 0)
(3.58742e-06 -6.96671e-07 0)
(5.71193e-06 -6.05251e-07 0)
(7.49018e-06 -5.06989e-07 0)
(8.90797e-06 -4.05401e-07 0)
(9.96134e-06 -3.03534e-07 0)
(1.06566e-05 -2.04415e-07 0)
(1.10089e-05 -1.11645e-07 0)
(1.10371e-05 -2.8188e-08 0)
(1.07715e-05 4.99913e-08 0)
(1.02483e-05 1.18247e-07 0)
(9.50204e-06 1.75234e-07 0)
(8.57049e-06 2.20704e-07 0)
(7.49227e-06 2.54675e-07 0)
(6.30566e-06 2.77604e-07 0)
(5.0476e-06 2.89948e-07 0)
(3.75223e-06 2.92529e-07 0)
(2.45084e-06 2.86265e-07 0)
(1.17014e-06 2.72222e-07 0)
(-6.19249e-08 2.53012e-07 0)
(-1.22674e-06 2.2654e-07 0)
(-2.30636e-06 1.97635e-07 0)
(-3.28558e-06 1.63625e-07 0)
(-4.15726e-06 1.272e-07 0)
(-4.91433e-06 8.79588e-08 0)
(-5.5482e-06 5.05813e-08 0)
(-6.05609e-06 1.12205e-08 0)
(-6.44365e-06 -2.74687e-08 0)
(-6.71007e-06 -6.50236e-08 0)
(-6.8596e-06 -1.01068e-07 0)
(-6.89609e-06 -1.3377e-07 0)
(-6.82176e-06 -1.63582e-07 0)
(-6.64199e-06 -1.92249e-07 0)
(-6.36451e-06 -2.20393e-07 0)
(-5.99718e-06 -2.46593e-07 0)
(-5.54723e-06 -2.69588e-07 0)
(-5.02472e-06 -2.89411e-07 0)
(-4.44049e-06 -3.0579e-07 0)
(-3.80527e-06 -3.19459e-07 0)
(-3.1306e-06 -3.30064e-07 0)
(-2.42687e-06 -3.36753e-07 0)
(-1.70933e-06 -3.38561e-07 0)
(-1.01238e-06 -3.34964e-07 0)
(-3.26374e-07 -3.22145e-07 0)
(1.49043e-07 1.76064e-07 0)
(1.55364e-07 7.16348e-07 0)
(-2.82815e-07 8.4437e-07 0)
(-8.88459e-07 6.87983e-07 0)
(-1.39556e-06 4.71624e-07 0)
(-1.8052e-06 3.57278e-07 0)
(-2.16507e-06 3.50825e-07 0)
(-2.53544e-06 4.11176e-07 0)
(-2.9578e-06 5.05941e-07 0)
(-3.45814e-06 6.18696e-07 0)
(-4.05286e-06 7.42654e-07 0)
(-4.75498e-06 8.74915e-07 0)
(-5.57485e-06 1.01458e-06 0)
(-6.52179e-06 1.16182e-06 0)
(-7.60474e-06 1.31571e-06 0)
(-8.8309e-06 1.47616e-06 0)
(-1.0207e-05 1.64278e-06 0)
(-1.17383e-05 1.81418e-06 0)
(-1.34281e-05 1.98912e-06 0)
(-1.52783e-05 2.16553e-06 0)
(-1.72889e-05 2.34059e-06 0)
(-1.9457e-05 2.51101e-06 0)
(-2.17763e-05 2.67311e-06 0)
(-2.42368e-05 2.82275e-06 0)
(-2.68241e-05 2.95542e-06 0)
(-2.95194e-05 3.06619e-06 0)
(-3.22997e-05 3.14955e-06 0)
(-3.51372e-05 3.19994e-06 0)
(-3.79986e-05 3.21198e-06 0)
(-4.08455e-05 3.1804e-06 0)
(-4.36344e-05 3.10015e-06 0)
(-4.63177e-05 2.96695e-06 0)
(-4.8843e-05 2.77712e-06 0)
(-5.11555e-05 2.52652e-06 0)
(-5.31986e-05 2.21335e-06 0)
(-5.49126e-05 1.8383e-06 0)
(-5.62386e-05 1.40179e-06 0)
(-5.71214e-05 9.05299e-07 0)
(-5.7509e-05 3.55236e-07 0)
(-5.73548e-05 -2.39359e-07 0)
(-5.66193e-05 -8.76225e-07 0)
(-5.52729e-05 -1.53907e-06 0)
(-5.33003e-05 -2.21329e-06 0)
(-5.07025e-05 -2.88309e-06 0)
(-4.74902e-05 -3.52974e-06 0)
(-4.36931e-05 -4.14023e-06 0)
(-3.93626e-05 -4.69181e-06 0)
(-3.45624e-05 -5.16842e-06 0)
(-2.93726e-05 -5.55434e-06 0)
(-2.3886e-05 -5.83693e-06 0)
(-1.82062e-05 -6.00659e-06 0)
(-1.24438e-05 -6.05736e-06 0)
(-6.71273e-06 -5.98741e-06 0)
(-1.12544e-06 -5.79975e-06 0)
(4.20807e-06 -5.49836e-06 0)
(9.18927e-06 -5.09923e-06 0)
(1.37347e-05 -4.61315e-06 0)
(1.77693e-05 -4.05792e-06 0)
(2.12366e-05 -3.44963e-06 0)
(2.41009e-05 -2.80781e-06 0)
(2.63417e-05 -2.15154e-06 0)
(2.7955e-05 -1.4987e-06 0)
(2.89524e-05 -8.6571e-07 0)
(2.93604e-05 -2.67563e-07 0)
(2.92217e-05 2.83158e-07 0)
(2.85849e-05 7.81017e-07 0)
(2.75037e-05 1.21694e-06 0)
(2.60411e-05 1.58595e-06 0)
(2.42617e-05 1.88586e-06 0)
(2.22305e-05 2.11673e-06 0)
(2.00112e-05 2.28061e-06 0)
(1.76654e-05 2.38098e-06 0)
(1.52503e-05 2.4223e-06 0)
(1.28182e-05 2.41025e-06 0)
(1.04161e-05 2.35102e-06 0)
(8.08604e-06 2.25248e-06 0)
(5.86264e-06 2.11781e-06 0)
(3.77523e-06 1.95753e-06 0)
(1.8465e-06 1.7737e-06 0)
(9.28152e-08 1.57402e-06 0)
(-1.47174e-06 1.36199e-06 0)
(-2.83767e-06 1.14828e-06 0)
(-4.00235e-06 9.30222e-07 0)
(-4.96813e-06 7.14903e-07 0)
(-5.73613e-06 5.0452e-07 0)
(-6.31084e-06 2.99923e-07 0)
(-6.69988e-06 1.04715e-07 0)
(-6.91184e-06 -8.14e-08 0)
(-6.95653e-06 -2.58412e-07 0)
(-6.84456e-06 -4.25174e-07 0)
(-6.58703e-06 -5.78404e-07 0)
(-6.19622e-06 -7.14959e-07 0)
(-5.68728e-06 -8.34001e-07 0)
(-5.07598e-06 -9.33936e-07 0)
(-4.37726e-06 -1.01559e-06 0)
(-3.60724e-06 -1.0781e-06 0)
(-2.78512e-06 -1.11751e-06 0)
(-1.938e-06 -1.12151e-06 0)
(-1.12653e-06 -1.09721e-06 0)
(-3.4623e-07 -1.01886e-06 0)
(6.67807e-08 -3.94994e-09 0)
(3.18635e-07 6.25281e-07 0)
(3.3222e-07 1.1753e-06 0)
(1.51442e-09 1.20077e-06 0)
(-4.28744e-07 9.84806e-07 0)
(-8.81609e-07 8.25648e-07 0)
(-1.33097e-06 7.99188e-07 0)
(-1.7973e-06 8.79582e-07 0)
(-2.30987e-06 1.0287e-06 0)
(-2.89518e-06 1.22226e-06 0)
(-3.57439e-06 1.44655e-06 0)
(-4.36509e-06 1.6946e-06 0)
(-5.28187e-06 1.96314e-06 0)
(-6.33842e-06 2.24967e-06 0)
(-7.54611e-06 2.55263e-06 0)
(-8.91419e-06 2.87049e-06 0)
(-1.04519e-05 3.2011e-06 0)
(-1.21653e-05 3.54191e-06 0)
(-1.40585e-05 3.88942e-06 0)
(-1.61337e-05 4.23888e-06 0)
(-1.83905e-05 4.58511e-06 0)
(-2.08256e-05 4.92169e-06 0)
(-2.34319e-05 5.24122e-06 0)
(-2.61981e-05 5.53551e-06 0)
(-2.91084e-05 5.79553e-06 0)
(-3.21425e-05 6.01121e-06 0)
(-3.5275e-05 6.17184e-06 0)
(-3.84751e-05 6.26667e-06 0)
(-4.1706e-05 6.28495e-06 0)
(-4.49251e-05 6.21595e-06 0)
(-4.8084e-05 6.04952e-06 0)
(-5.11294e-05 5.7764e-06 0)
(-5.40032e-05 5.38858e-06 0)
(-5.66433e-05 4.87912e-06 0)
(-5.89843e-05 4.24443e-06 0)
(-6.09585e-05 3.48333e-06 0)
(-6.24993e-05 2.59736e-06 0)
(-6.35419e-05 1.5917e-06 0)
(-6.40257e-05 4.77146e-07 0)
(-6.38952e-05 -7.30486e-07 0)
(-6.31032e-05 -2.012e-06 0)
(-6.16161e-05 -3.34326e-06 0)
(-5.94143e-05 -4.69607e-06 0)
(-5.64962e-05 -6.03806e-06 0)
(-5.28761e-05 -7.33285e-06 0)
(-4.8585e-05 -8.54794e-06 0)
(-4.3678e-05 -9.64467e-06 0)
(-3.82315e-05 -1.05871e-05 0)
(-3.23373e-05 -1.13445e-05 0)
(-2.61023e-05 -1.18912e-05 0)
(-1.96463e-05 -1.22071e-05 0)
(-1.30974e-05 -1.22818e-05 0)
(-6.58775e-06 -1.21122e-05 0)
(-2.45111e-07 -1.17043e-05 0)
(5.80016e-06 -1.10728e-05 0)
(1.14347e-05 -1.024e-05 0)
(1.65656e-05 -9.23456e-06 0)
(2.11065e-05 -8.09067e-06 0)
(2.49941e-05 -6.84405e-06 0)
(2.81877e-05 -5.5333e-06 0)
(3.06663e-05 -4.1968e-06 0)
(3.24279e-05 -2.87045e-06 0)
(3.34887e-05 -1.58652e-06 0)
(3.38816e-05 -3.7274e-07 0)
(3.36547e-05 7.47583e-07 0)
(3.28663e-05 1.7527e-06 0)
(3.15806e-05 2.63097e-06 0)
(2.98688e-05 3.37421e-06 0)
(2.78055e-05 3.97849e-06 0)
(2.54647e-05 4.44426e-06 0)
(2.29188e-05 4.7754e-06 0)
(2.02367e-05 4.97941e-06 0)
(1.74828e-05 5.06553e-06 0)
(1.47161e-05 5.04481e-06 0)
(1.19884e-05 4.92982e-06 0)
(9.34583e-06 4.73299e-06 0)
(6.82736e-06 4.4676e-06 0)
(4.46508e-06 4.14671e-06 0)
(2.2839e-06 3.78179e-06 0)
(3.02432e-07 3.38385e-06 0)
(-1.46211e-06 2.9648e-06 0)
(-3.00201e-06 2.53646e-06 0)
(-4.31461e-06 2.10282e-06 0)
(-5.39982e-06 1.67331e-06 0)
(-6.26176e-06 1.25335e-06 0)
(-6.90468e-06 8.45689e-07 0)
(-7.33742e-06 4.53203e-07 0)
(-7.57152e-06 7.86034e-08 0)
(-7.61904e-06 -2.74736e-07 0)
(-7.49391e-06 -6.03544e-07 0)
(-7.20984e-06 -9.04813e-07 0)
(-6.78174e-06 -1.17506e-06 0)
(-6.22541e-06 -1.4124e-06 0)
(-5.55651e-06 -1.61427e-06 0)
(-4.79e-06 -1.78003e-06 0)
(-3.9426e-06 -1.90845e-06 0)
(-3.03492e-06 -1.99048e-06 0)
(-2.09686e-06 -1.99679e-06 0)
(-1.19578e-06 -1.92833e-06 0)
(-3.54173e-07 -1.75139e-06 0)
(-8.52193e-09 -1.77819e-07 0)
(1.68857e-07 3.60906e-07 0)
(3.8068e-07 1.15087e-06 0)
(3.15684e-07 1.42823e-06 0)
(7.64739e-08 1.35326e-06 0)
(-2.78036e-07 1.25329e-06 0)
(-6.9351e-07 1.26131e-06 0)
(-1.15936e-06 1.38505e-06 0)
(-1.68511e-06 1.59725e-06 0)
(-2.28839e-06 1.87509e-06 0)
(-2.98776e-06 2.20269e-06 0)
(-3.80042e-06 2.5715e-06 0)
(-4.74245e-06 2.97558e-06 0)
(-5.82846e-06 3.41074e-06 0)
(-7.07119e-06 3.8745e-06 0)
(-8.48181e-06 4.36264e-06 0)
(-1.00701e-05 4.87135e-06 0)
(-1.18435e-05 5.39631e-06 0)
(-1.38071e-05 5.9316e-06 0)
(-1.59636e-05 6.46988e-06 0)
(-1.83129e-05 7.00315e-06 0)
(-2.08527e-05 7.52145e-06 0)
(-2.3576e-05 8.01364e-06 0)
(-2.64721e-05 8.46733e-06 0)
(-2.95255e-05 8.86855e-06 0)
(-3.27164e-05 9.20214e-06 0)
(-3.60193e-05 9.45214e-06 0)
(-3.94028e-05 9.60202e-06 0)
(-4.28299e-05 9.63501e-06 0)
(-4.62567e-05 9.53446e-06 0)
(-4.96335e-05 9.28439e-06 0)
(-5.29048e-05 8.86989e-06 0)
(-5.60093e-05 8.27802e-06 0)
(-5.88812e-05 7.49861e-06 0)
(-6.14506e-05 6.52528e-06 0)
(-6.36453e-05 5.35516e-06 0)
(-6.53919e-05 3.99023e-06 0)
(-6.66192e-05 2.43972e-06 0)
(-6.72581e-05 7.19178e-07 0)
(-6.72466e-05 -1.14888e-06 0)
(-6.65323e-05 -3.13461e-06 0)
(-6.50736e-05 -5.20009e-06 0)
(-6.28454e-05 -7.30106e-06 0)
(-5.98415e-05 -9.38698e-06 0)
(-5.60745e-05 -1.14021e-05 0)
(-5.15763e-05 -1.32898e-05 0)
(-4.64024e-05 -1.49943e-05 0)
(-4.06336e-05 -1.64584e-05 0)
(-3.4371e-05 -1.76336e-05 0)
(-2.77305e-05 -1.84778e-05 0)
(-2.08443e-05 -1.89603e-05 0)
(-1.38539e-05 -1.90645e-05 0)
(-6.90405e-06 -1.8786e-05 0)
(-1.39048e-07 -1.81344e-05 0)
(6.30161e-06 -1.71361e-05 0)
(1.22935e-05 -1.58217e-05 0)
(1.77311e-05 -1.42397e-05 0)
(2.25234e-05 -1.24436e-05 0)
(2.66031e-05 -1.04917e-05 0)
(2.99277e-05 -8.44309e-06 0)
(3.24771e-05 -6.35827e-06 0)
(3.42534e-05 -4.29296e-06 0)
(3.52778e-05 -2.29782e-06 0)
(3.55895e-05 -4.16812e-07 0)
(3.52419e-05 1.31417e-06 0)
(3.43013e-05 2.86554e-06 0)
(3.28415e-05 4.21756e-06 0)
(3.09403e-05 5.35839e-06 0)
(2.86789e-05 6.28292e-06 0)
(2.61371e-05 6.99277e-06 0)
(2.33927e-05 7.49446e-06 0)
(2.05193e-05 7.79968e-06 0)
(1.75844e-05 7.92364e-06 0)
(1.46495e-05 7.88354e-06 0)
(1.17686e-05 7.69847e-06 0)
(8.98924e-06 7.38846e-06 0)
(6.35147e-06 6.97421e-06 0)
(3.8869e-06 6.47555e-06 0)
(1.61999e-06 5.91009e-06 0)
(-4.28876e-07 5.29461e-06 0)
(-2.24208e-06 4.64977e-06 0)
(-3.81599e-06 3.98619e-06 0)
(-5.1483e-06 3.31688e-06 0)
(-6.23794e-06 2.65276e-06 0)
(-7.09097e-06 2.00285e-06 0)
(-7.71411e-06 1.3739e-06 0)
(-8.11693e-06 7.70766e-07 0)
(-8.31153e-06 1.98352e-07 0)
(-8.31262e-06 -3.39315e-07 0)
(-8.13668e-06 -8.37487e-07 0)
(-7.79856e-06 -1.29228e-06 0)
(-7.31345e-06 -1.70056e-06 0)
(-6.69726e-06 -2.05956e-06 0)
(-5.96552e-06 -2.36795e-06 0)
(-5.13393e-06 -2.62279e-06 0)
(-4.21933e-06 -2.82264e-06 0)
(-3.24183e-06 -2.95187e-06 0)
(-2.23162e-06 -2.96375e-06 0)
(-1.25918e-06 -2.84396e-06 0)
(-3.62286e-07 -2.53272e-06 0)
(-5.95744e-08 -1.64903e-07 0)
(-4.56015e-08 1.88939e-07 0)
(1.70849e-07 1.02162e-06 0)
(2.4954e-07 1.47664e-06 0)
(1.80581e-07 1.56974e-06 0)
(-3.34539e-08 1.58323e-06 0)
(-3.46417e-07 1.66948e-06 0)
(-7.39935e-07 1.86151e-06 0)
(-1.21384e-06 2.15089e-06 0)
(-1.77786e-06 2.51915e-06 0)
(-2.44572e-06 2.95384e-06 0)
(-3.23202e-06 3.4455e-06 0)
(-4.15221e-06 3.98748e-06 0)
(-5.22013e-06 4.57495e-06 0)
(-6.4496e-06 5.20333e-06 0)
(-7.85285e-06 5.86705e-06 0)
(-9.44008e-06 6.56048e-06 0)
(-1.12198e-05 7.27712e-06 0)
(-1.31988e-05 8.00877e-06 0)
(-1.53805e-05 8.74574e-06 0)
(-1.77665e-05 9.47681e-06 0)
(-2.03555e-05 1.01885e-05 0)
(-2.3142e-05 1.08659e-05 0)
(-2.61164e-05 1.14922e-05 0)
(-2.9265e-05 1.20487e-05 0)
(-3.25685e-05 1.25151e-05 0)
(-3.60025e-05 1.28698e-05 0)
(-3.95362e-05 1.30902e-05 0)
(-4.31325e-05 1.31531e-05 0)
(-4.67472e-05 1.30355e-05 0)
(-5.03296e-05 1.2715e-05 0)
(-5.38223e-05 1.21705e-05 0)
(-5.71613e-05 1.13837e-05 0)
(-6.02767e-05 1.03395e-05 0)
(-6.30942e-05 9.02749e-06 0)
(-6.55359e-05 7.4429e-06 0)
(-6.75216e-05 5.58752e-06 0)
(-6.89709e-05 3.4726e-06 0)
(-6.98084e-05 1.11846e-06 0)
(-6.99626e-05 -1.44483e-06 0)
(-6.93694e-05 -4.17744e-06 0)
(-6.79801e-05 -7.02673e-06 0)
(-6.57617e-05 -9.93119e-06 0)
(-6.27012e-05 -1.28205e-05 0)
(-5.88073e-05 -1.56168e-05 0)
(-5.41114e-05 -1.82398e-05 0)
(-4.86696e-05 -2.06112e-05 0)
(-4.25676e-05 -2.26492e-05 0)
(-3.59149e-05 -2.42858e-05 0)
(-2.88387e-05 -2.54605e-05 0)
(-2.14874e-05 -2.61295e-05 0)
(-1.40184e-05 -2.62688e-05 0)
(-6.59298e-06 -2.58724e-05 0)
(6.26658e-07 -2.49546e-05 0)
(7.48654e-06 -2.35502e-05 0)
(1.38485e-05 -2.17081e-05 0)
(1.95943e-05 -1.94949e-05 0)
(2.46259e-05 -1.69873e-05 0)
(2.8873e-05 -1.42671e-05 0)
(3.22917e-05 -1.14183e-05 0)
(3.48638e-05 -8.52582e-06 0)
(3.65971e-05 -5.66738e-06 0)
(3.75199e-05 -2.91345e-06 0)
(3.76803e-05 -3.24985e-07 0)
(3.7142e-05 2.04708e-06 0)
(3.59805e-05 4.16744e-06 0)
(3.42792e-05 6.0085e-06 0)
(3.21254e-05 7.55496e-06 0)
(2.96084e-05 8.80109e-06 0)
(2.68153e-05 9.75023e-06 0)
(2.38295e-05 1.04133e-05 0)
(2.07298e-05 1.08069e-05 0)
(1.75872e-05 1.09525e-05 0)
(1.44655e-05 1.08751e-05 0)
(1.14204e-05 1.06012e-05 0)
(8.5006e-06 1.01595e-05 0)
(5.74589e-06 9.57709e-06 0)
(3.18635e-06 8.88147e-06 0)
(8.45054e-07 8.09683e-06 0)
(-1.25504e-06 7.24882e-06 0)
(-3.10179e-06 6.36082e-06 0)
(-4.69425e-06 5.44736e-06 0)
(-6.02844e-06 4.52873e-06 0)
(-7.10717e-06 3.61794e-06 0)
(-7.93779e-06 2.72777e-06 0)
(-8.52848e-06 1.8688e-06 0)
(-8.89102e-06 1.04792e-06 0)
(-9.04e-06 2.7101e-07 0)
(-8.99034e-06 -4.55015e-07 0)
(-8.75864e-06 -1.12588e-06 0)
(-8.36173e-06 -1.73593e-06 0)
(-7.81598e-06 -2.28359e-06 0)
(-7.13821e-06 -2.76522e-06 0)
(-6.34276e-06 -3.18062e-06 0)
(-5.44577e-06 -3.5267e-06 0)
(-4.46617e-06 -3.79953e-06 0)
(-3.42375e-06 -3.97683e-06 0)
(-2.34909e-06 -3.99271e-06 0)
(-1.31485e-06 -3.81569e-06 0)
(-3.70608e-07 -3.3444e-06 0)
(-7.74352e-08 -5.52421e-08 0)
(-1.60424e-07 1.13845e-07 0)
(1.15555e-08 8.66255e-07 0)
(1.50379e-07 1.40488e-06 0)
(1.96278e-07 1.6365e-06 0)
(1.08829e-07 1.77609e-06 0)
(-8.96668e-08 1.96606e-06 0)
(-3.84787e-07 2.25035e-06 0)
(-7.75586e-07 2.63358e-06 0)
(-1.26944e-06 3.10374e-06 0)
(-1.87547e-06 3.65341e-06 0)
(-2.60715e-06 4.27518e-06 0)
(-3.47784e-06 4.96119e-06 0)
(-4.50139e-06 5.70629e-06 0)
(-5.69229e-06 6.50477e-06 0)
(-7.06332e-06 7.35032e-06 0)
(-8.62553e-06 8.23579e-06 0)
(-1.03889e-05 9.15279e-06 0)
(-1.23618e-05 1.00909e-05 0)
(-1.45494e-05 1.10381e-05 0)
(-1.69553e-05 1.19801e-05 0)
(-1.95802e-05 1.29e-05 0)
(-2.24202e-05 1.37791e-05 0)
(-2.54682e-05 1.45961e-05 0)
(-2.87119e-05 1.53275e-05 0)
(-3.2134e-05 1.59476e-05 0)
(-3.57113e-05 1.64289e-05 0)
(-3.94142e-05 1.67421e-05 0)
(-4.32058e-05 1.68573e-05 0)
(-4.70417e-05 1.67443e-05 0)
(-5.087e-05 1.63737e-05 0)
(-5.46311e-05 1.57173e-05 0)
(-5.8258e-05 1.475e-05 0)
(-6.16763e-05 1.34505e-05 0)
(-6.4806e-05 1.18034e-05 0)
(-6.7562e-05 9.8011e-06 0)
(-6.98548e-05 7.44448e-06 0)
(-7.15942e-05 4.74492e-06 0)
(-7.26918e-05 1.72543e-06 0)
(-7.3066e-05 -1.57359e-06 0)
(-7.26412e-05 -5.10473e-06 0)
(-7.13542e-05 -8.79921e-06 0)
(-6.91619e-05 -1.2577e-05 0)
(-6.60417e-05 -1.63462e-05 0)
(-6.19962e-05 -2.00042e-05 0)
(-5.70572e-05 -2.34438e-05 0)
(-5.12783e-05 -2.65579e-05 0)
(-4.47517e-05 -2.92404e-05 0)
(-3.76e-05 -3.13946e-05 0)
(-2.99637e-05 -3.29439e-05 0)
(-2.20124e-05 -3.3825e-05 0)
(-1.39257e-05 -3.40056e-05 0)
(-5.88752e-06 -3.34775e-05 0)
(1.91665e-06 -3.22605e-05 0)
(9.3121e-06 -3.04008e-05 0)
(1.6142e-05 -2.79669e-05 0)
(2.22725e-05 -2.50479e-05 0)
(2.7597e-05 -2.17472e-05 0)
(3.20408e-05 -1.81747e-05 0)
(3.55581e-05 -1.44446e-05 0)
(3.8135e-05 -1.06674e-05 0)
(3.97878e-05 -6.94654e-06 0)
(4.05548e-05 -3.3743e-06 0)
(4.04946e-05 -2.95163e-08 0)
(3.96865e-05 3.02531e-06 0)
(3.82204e-05 5.74248e-06 0)
(3.61903e-05 8.08896e-06 0)
(3.36962e-05 1.00472e-05 0)
(3.08378e-05 1.16123e-05 0)
(2.77121e-05 1.27905e-05 0)
(2.441e-05 1.35986e-05 0)
(2.10158e-05 1.406e-05 0)
(1.76054e-05 1.42035e-05 0)
(1.42455e-05 1.4063e-05 0)
(1.09939e-05 1.36736e-05 0)
(7.89908e-06 1.3073e-05 0)
(4.99976e-06 1.2296e-05 0)
(2.32516e-06 1.13776e-05 0)
(-1.01767e-07 1.03498e-05 0)
(-2.26099e-06 9.24761e-06 0)
(-4.14557e-06 8.09441e-06 0)
(-5.75466e-06 6.91534e-06 0)
(-7.08708e-06 5.73209e-06 0)
(-8.14884e-06 4.56219e-06 0)
(-8.94809e-06 3.42155e-06 0)
(-9.49741e-06 2.32376e-06 0)
(-9.81157e-06 1.278e-06 0)
(-9.90347e-06 2.89926e-07 0)
(-9.79048e-06 -6.28145e-07 0)
(-9.4912e-06 -1.47479e-06 0)
(-9.0236e-06 -2.2439e-06 0)
(-8.40488e-06 -2.93274e-06 0)
(-7.652e-06 -3.53905e-06 0)
(-6.78095e-06 -4.06127e-06 0)
(-5.80753e-06 -4.49908e-06 0)
(-4.75135e-06 -4.84595e-06 0)
(-3.63294e-06 -5.07187e-06 0)
(-2.48457e-06 -5.08967e-06 0)
(-1.38016e-06 -4.84558e-06 0)
(-3.81031e-07 -4.18662e-06 0)
(-7.1295e-08 8.02545e-08 0)
(-1.67907e-07 8.84355e-08 0)
(-1.69518e-08 7.15485e-07 0)
(1.5786e-07 1.27536e-06 0)
(2.83513e-07 1.60674e-06 0)
(2.98967e-07 1.86119e-06 0)
(2.07927e-07 2.15864e-06 0)
(1.55977e-08 2.54597e-06 0)
(-2.8107e-07 3.03128e-06 0)
(-6.88808e-07 3.61245e-06 0)
(-1.21394e-06 4.28444e-06 0)
(-1.87158e-06 5.04095e-06 0)
(-2.67541e-06 5.87735e-06 0)
(-3.63753e-06 6.78597e-06 0)
(-4.77321e-06 7.7611e-06 0)
(-6.09628e-06 8.79604e-06 0)
(-7.61909e-06 9.88245e-06 0)
(-9.3535e-06 1.10104e-05 0)
(-1.13098e-05 1.21676e-05 0)
(-1.34954e-05 1.33394e-05 0)
(-1.59163e-05 1.45088e-05 0)
(-1.85759e-05 1.56555e-05 0)
(-2.14726e-05 1.67573e-05 0)
(-2.46018e-05 1.77884e-05 0)
(-2.79538e-05 1.87202e-05 0)
(-3.15138e-05 1.95212e-05 0)
(-3.52606e-05 2.01574e-05 0)
(-3.91658e-05 2.05927e-05 0)
(-4.31932e-05 2.07899e-05 0)
(-4.72985e-05 2.07108e-05 0)
(-5.14288e-05 2.03176e-05 0)
(-5.55223e-05 1.9574e-05 0)
(-5.95083e-05 1.84465e-05 0)
(-6.33072e-05 1.69065e-05 0)
(-6.68311e-05 1.49317e-05 0)
(-6.99854e-05 1.251e-05 0)
(-7.26712e-05 9.63913e-06 0)
(-7.47857e-05 6.33015e-06 0)
(-7.62246e-05 2.61046e-06 0)
(-7.68918e-05 -1.47575e-06 0)
(-7.66948e-05 -5.87277e-06 0)
(-7.55523e-05 -1.04918e-05 0)
(-7.34081e-05 -1.52342e-05 0)
(-7.02265e-05 -1.99837e-05 0)
(-6.60012e-05 -2.46098e-05 0)
(-6.07589e-05 -2.89732e-05 0)
(-5.45567e-05 -3.29316e-05 0)
(-4.74907e-05 -3.63522e-05 0)
(-3.97002e-05 -3.91035e-05 0)
(-3.13461e-05 -4.10827e-05 0)
(-2.26208e-05 -4.22109e-05 0)
(-1.37371e-05 -4.24411e-05 0)
(-4.90859e-06 -4.17623e-05 0)
(3.6482e-06 -4.02011e-05 0)
(1.17305e-05 -3.78185e-05 0)
(1.91571e-05 -3.47058e-05 0)
(2.57745e-05 -3.09799e-05 0)
(3.14643e-05 -2.67768e-05 0)
(3.61452e-05 -2.22411e-05 0)
(3.97723e-05 -1.7521e-05 0)
(4.23387e-05 -1.27571e-05 0)
(4.38702e-05 -8.08235e-06 0)
(4.44197e-05 -3.61376e-06 0)
(4.40651e-05 5.50664e-07 0)
(4.29012e-05 4.33685e-06 0)
(4.10331e-05 7.68368e-06 0)
(3.85743e-05 1.0554e-05 0)
(3.56403e-05 1.29293e-05 0)
(3.23442e-05 1.48074e-05 0)
(2.87947e-05 1.61996e-05 0)
(2.50925e-05 1.71297e-05 0)
(2.13284e-05 1.76304e-05 0)
(1.75835e-05 1.77396e-05 0)
(1.39284e-05 1.75009e-05 0)
(1.04224e-05 1.69603e-05 0)
(7.11374e-06 1.6164e-05 0)
(4.03974e-06 1.51575e-05 0)
(1.22778e-06 1.39832e-05 0)
(-1.29899e-06 1.26832e-05 0)
(-3.5261e-06 1.12974e-05 0)
(-5.45115e-06 9.8555e-06 0)
(-7.07473e-06 8.38919e-06 0)
(-8.40037e-06 6.92292e-06 0)
(-9.43655e-06 5.4784e-06 0)
(-1.01945e-05 4.07516e-06 0)
(-1.06891e-05 2.72745e-06 0)
(-1.09403e-05 1.44853e-06 0)
(-1.09597e-05 2.47055e-07 0)
(-1.07668e-05 -8.72138e-07 0)
(-1.03848e-05 -1.89868e-06 0)
(-9.82906e-06 -2.8307e-06 0)
(-9.11994e-06 -3.66366e-06 0)
(-8.27533e-06 -4.39662e-06 0)
(-7.3122e-06 -5.02724e-06 0)
(-6.24752e-06 -5.55653e-06 0)
(-5.09956e-06 -5.97695e-06 0)
(-3.88938e-06 -6.25093e-06 0)
(-2.65057e-06 -6.26829e-06 0)
(-1.46005e-06 -5.94708e-06 0)
(-3.936e-07 -5.06795e-06 0)
(-5.50039e-08 1.88852e-07 0)
(-1.08102e-07 5.27898e-08 0)
(6.33497e-08 5.46615e-07 0)
(2.81302e-07 1.09546e-06 0)
(4.7682e-07 1.49523e-06 0)
(5.84518e-07 1.84725e-06 0)
(5.95629e-07 2.24784e-06 0)
(5.06226e-07 2.73981e-06 0)
(3.10747e-07 3.33357e-06 0)
(1.76658e-09 4.03226e-06 0)
(-4.30992e-07 4.83223e-06 0)
(-1.00008e-06 5.72853e-06 0)
(-1.72029e-06 6.71979e-06 0)
(-2.60667e-06 7.79889e-06 0)
(-3.67279e-06 8.95827e-06 0)
(-4.9341e-06 1.01914e-05 0)
(-6.4049e-06 1.14892e-05 0)
(-8.09919e-06 1.28405e-05 0)
(-1.00299e-05 1.42312e-05 0)
(-1.2207e-05 1.56448e-05 0)
(-1.46397e-05 1.70613e-05 0)
(-1.73338e-05 1.84576e-05 0)
(-2.02912e-05 1.98078e-05 0)
(-2.35106e-05 2.10815e-05 0)
(-2.69856e-05 2.22449e-05 0)
(-3.07046e-05 2.32603e-05 0)
(-3.46487e-05 2.40869e-05 0)
(-3.87915e-05 2.46815e-05 0)
(-4.30983e-05 2.49984e-05 0)
(-4.75253e-05 2.49905e-05 0)
(-5.20187e-05 2.46105e-05 0)
(-5.65147e-05 2.38123e-05 0)
(-6.09386e-05 2.25526e-05 0)
(-6.52047e-05 2.07935e-05 0)
(-6.92164e-05 1.85044e-05 0)
(-7.28689e-05 1.5665e-05 0)
(-7.60492e-05 1.22677e-05 0)
(-7.86377e-05 8.32158e-06 0)
(-8.05127e-05 3.85418e-06 0)
(-8.15642e-05 -1.08855e-06 0)
(-8.16723e-05 -6.42546e-06 0)
(-8.07305e-05 -1.20664e-05 0)
(-7.86685e-05 -1.78884e-05 0)
(-7.54318e-05 -2.37463e-05 0)
(-7.10001e-05 -2.94768e-05 0)
(-6.53932e-05 -3.49026e-05 0)
(-5.86712e-05 -3.98418e-05 0)
(-5.09366e-05 -4.41227e-05 0)
(-4.23428e-05 -4.75757e-05 0)
(-3.30826e-05 -5.00614e-05 0)
(-2.33813e-05 -5.14813e-05 0)
(-1.34869e-05 -5.17716e-05 0)
(-3.6564e-06 -5.09169e-05 0)
(5.85256e-06 -4.89516e-05 0)
(1.48004e-05 -4.59558e-05 0)
(2.29743e-05 -4.20499e-05 0)
(3.01958e-05 -3.73849e-05 0)
(3.63309e-05 -3.21381e-05 0)
(4.12924e-05 -2.6495e-05 0)
(4.50384e-05 -2.06433e-05 0)
(4.75704e-05 -1.47621e-05 0)
(4.89285e-05 -9.01711e-06 0)
(4.91857e-05 -3.55328e-06 0)
(4.84435e-05 1.51045e-06 0)
(4.68181e-05 6.08206e-06 0)
(4.44365e-05 1.00951e-05 0)
(4.14352e-05 1.35086e-05 0)
(3.79491e-05 1.63043e-05 0)
(3.4108e-05 1.84845e-05 0)
(3.00346e-05 2.00684e-05 0)
(2.5841e-05 2.10892e-05 0)
(2.16261e-05 2.15904e-05 0)
(1.74765e-05 2.16229e-05 0)
(1.34666e-05 2.12411e-05 0)
(9.6573e-06 2.05031e-05 0)
(6.09632e-06 1.94664e-05 0)
(2.8186e-06 1.81868e-05 0)
(-1.49829e-07 1.67144e-05 0)
(-2.7887e-06 1.51069e-05 0)
(-5.09024e-06 1.34039e-05 0)
(-7.05561e-06 1.16444e-05 0)
(-8.68931e-06 9.86443e-06 0)
(-1.00001e-05 8.0934e-06 0)
(-1.09988e-05 6.35531e-06 0)
(-1.17011e-05 4.67429e-06 0)
(-1.21258e-05 3.06499e-06 0)
(-1.22934e-05 1.54208e-06 0)
(-1.22252e-05 1.18134e-07 0)
(-1.19369e-05 -1.20411e-06 0)
(-1.14503e-05 -2.4154e-06 0)
(-1.0789e-05 -3.51269e-06 0)
(-9.97127e-06 -4.49261e-06 0)
(-9.0163e-06 -5.35365e-06 0)
(-7.94318e-06 -6.09436e-06 0)
(-6.77002e-06 -6.71548e-06 0)
(-5.51425e-06 -7.20895e-06 0)
(-4.19675e-06 -7.53002e-06 0)
(-2.85232e-06 -7.54443e-06 0)
(-1.55982e-06 -7.13533e-06 0)
(-4.09822e-07 -5.99941e-06 0)
(-3.24727e-08 2.46234e-07 0)
(-1.30628e-08 -3.49067e-08 0)
(2.11562e-07 3.31393e-07 0)
(4.93232e-07 8.55357e-07 0)
(7.65537e-07 1.30404e-06 0)
(9.67609e-07 1.73785e-06 0)
(1.08274e-06 2.23357e-06 0)
(1.1014e-06 2.82772e-06 0)
(1.015e-06 3.53239e-06 0)
(8.13747e-07 4.35141e-06 0)
(4.85945e-07 5.2832e-06 0)
(1.92685e-08 6.32615e-06 0)
(-6.02049e-07 7.47625e-06 0)
(-1.3963e-06 8.73015e-06 0)
(-2.37829e-06 1.00815e-05 0)
(-3.56323e-06 1.15229e-05 0)
(-4.96814e-06 1.30438e-05 0)
(-6.61e-06 1.46325e-05 0)
(-8.50434e-06 1.62733e-05 0)
(-1.06645e-05 1.79483e-05 0)
(-1.31032e-05 1.96348e-05 0)
(-1.58294e-05 2.13075e-05 0)
(-1.8849e-05 2.29362e-05 0)
(-2.21654e-05 2.44863e-05 0)
(-2.5776e-05 2.59183e-05 0)
(-2.96729e-05 2.71884e-05 0)
(-3.38407e-05 2.82491e-05 0)
(-3.82558e-05 2.90485e-05 0)
(-4.28858e-05 2.95318e-05 0)
(-4.76881e-05 2.96419e-05 0)
(-5.26087e-05 2.93206e-05 0)
(-5.75819e-05 2.851e-05 0)
(-6.25289e-05 2.71551e-05 0)
(-6.73573e-05 2.52061e-05 0)
(-7.19614e-05 2.26211e-05 0)
(-7.6224e-05 1.93695e-05 0)
(-8.00163e-05 1.5437e-05 0)
(-8.32008e-05 1.08254e-05 0)
(-8.56361e-05 5.56099e-06 0)
(-8.71726e-05 -3.03579e-07 0)
(-8.76737e-05 -6.68199e-06 0)
(-8.70161e-05 -1.34673e-05 0)
(-8.50887e-05 -2.05119e-05 0)
(-8.18155e-05 -2.76391e-05 0)
(-7.7158e-05 -3.46472e-05 0)
(-7.11247e-05 -4.13142e-05 0)
(-6.37778e-05 -4.74089e-05 0)
(-5.52256e-05 -5.27083e-05 0)
(-4.56399e-05 -5.69968e-05 0)
(-3.52525e-05 -6.00938e-05 0)
(-2.43317e-05 -6.18647e-05 0)
(-1.31731e-05 -6.22286e-05 0)
(-2.08889e-06 -6.11646e-05 0)
(8.60919e-06 -5.87178e-05 0)
(1.86323e-05 -5.4991e-05 0)
(2.77281e-05 -5.01429e-05 0)
(3.56864e-05 -4.43695e-05 0)
(4.23543e-05 -3.78962e-05 0)
(4.76401e-05 -3.09601e-05 0)
(5.15053e-05 -2.37989e-05 0)
(5.3965e-05 -1.66377e-05 0)
(5.50791e-05 -9.68027e-06 0)
(5.49474e-05 -3.10317e-06 0)
(5.37006e-05 2.95215e-06 0)
(5.14861e-05 8.37707e-06 0)
(4.84598e-05 1.30988e-05 0)
(4.47836e-05 1.70745e-05 0)
(4.06163e-05 2.02892e-05 0)
(3.61086e-05 2.27533e-05 0)
(3.13998e-05 2.44966e-05 0)
(2.66149e-05 2.55654e-05 0)
(2.18625e-05 2.6017e-05 0)
(1.72347e-05 2.59178e-05 0)
(1.2809e-05 2.53367e-05 0)
(8.64808e-06 2.43446e-05 0)
(4.79778e-06 2.30125e-05 0)
(1.28803e-06 2.14059e-05 0)
(-1.85194e-06 1.959e-05 0)
(-4.60939e-06 1.76282e-05 0)
(-6.98856e-06 1.55681e-05 0)
(-8.9907e-06 1.34557e-05 0)
(-1.06258e-05 1.13313e-05 0)
(-1.19095e-05 9.22956e-06 0)
(-1.28557e-05 7.1784e-06 0)
(-1.34847e-05 5.20157e-06 0)
(-1.38211e-05 3.31729e-06 0)
(-1.38869e-05 1.54091e-06 0)
(-1.37056e-05 -1.16125e-07 0)
(-1.33001e-05 -1.6456e-06 0)
(-1.2693e-05 -3.04605e-06 0)
(-1.19059e-05 -4.31065e-06 0)
(-1.09606e-05 -5.43846e-06 0)
(-9.87706e-06 -6.42788e-06 0)
(-8.67594e-06 -7.27918e-06 0)
(-7.37685e-06 -7.9922e-06 0)
(-5.9966e-06 -8.55792e-06 0)
(-4.5558e-06 -8.92517e-06 0)
(-3.08882e-06 -8.93452e-06 0)
(-1.67884e-06 -8.42687e-06 0)
(-4.30247e-07 -6.99074e-06 0)
(-9.13999e-09 2.38561e-07 0)
(1.00533e-07 -2.03292e-07 0)
(4.06574e-07 4.18225e-08 0)
(7.72245e-07 5.35786e-07 0)
(1.13424e-06 1.02285e-06 0)
(1.43924e-06 1.5278e-06 0)
(1.66628e-06 2.11024e-06 0)
(1.80146e-06 2.80261e-06 0)
(1.83442e-06 3.61681e-06 0)
(1.75321e-06 4.55712e-06 0)
(1.54445e-06 5.62408e-06 0)
(1.19367e-06 6.817e-06 0)
(6.84408e-07 8.13225e-06 0)
(-6.82365e-10 9.567e-06 0)
(-8.79329e-07 1.11171e-05 0)
(-1.97114e-06 1.27755e-05 0)
(-3.29469e-06 1.45312e-05 0)
(-4.86909e-06 1.6373e-05 0)
(-6.7136e-06 1.8283e-05 0)
(-8.84513e-06 2.0241e-05 0)
(-1.12802e-05 2.22239e-05 0)
(-1.40322e-05 2.42032e-05 0)
(-1.71123e-05 2.61452e-05 0)
(-2.05285e-05 2.80105e-05 0)
(-2.42836e-05 2.97546e-05 0)
(-2.83739e-05 3.13273e-05 0)
(-3.27888e-05 3.26735e-05 0)
(-3.75089e-05 3.37324e-05 0)
(-4.2505e-05 3.4439e-05 0)
(-4.77366e-05 3.47248e-05 0)
(-5.31507e-05 3.45188e-05 0)
(-5.86802e-05 3.37498e-05 0)
(-6.42425e-05 3.23484e-05 0)
(-6.97387e-05 3.02502e-05 0)
(-7.5053e-05 2.73987e-05 0)
(-8.00531e-05 2.37495e-05 0)
(-8.45932e-05 1.92765e-05 0)
(-8.85133e-05 1.39724e-05 0)
(-9.16412e-05 7.85911e-06 0)
(-9.38064e-05 9.91299e-07 0)
(-9.4835e-05 -6.54409e-06 0)
(-9.45592e-05 -1.46192e-05 0)
(-9.28388e-05 -2.30606e-05 0)
(-8.95654e-05 -3.16567e-05 0)
(-8.46734e-05 -4.01599e-05 0)
(-7.81535e-05 -4.82945e-05 0)
(-7.00643e-05 -5.57681e-05 0)
(-6.05239e-05 -6.22897e-05 0)
(-4.97276e-05 -6.75902e-05 0)
(-3.79498e-05 -7.14318e-05 0)
(-2.55154e-05 -7.36337e-05 0)
(-1.2786e-05 -7.40894e-05 0)
(-1.44712e-07 -7.27743e-05 0)
(1.20273e-05 -6.97448e-05 0)
(2.33764e-05 -6.51354e-05 0)
(3.35968e-05 -5.91525e-05 0)
(4.24434e-05 -5.20507e-05 0)
(4.97411e-05 -4.41169e-05 0)
(5.53904e-05 -3.56543e-05 0)
(5.93614e-05 -2.69621e-05 0)
(6.16896e-05 -1.832e-05 0)
(6.24635e-05 -9.97781e-06 0)
(6.18186e-05 -2.1452e-06 0)
(5.99241e-05 5.00874e-06 0)
(5.69651e-05 1.13638e-05 0)
(5.31341e-05 1.68388e-05 0)
(4.86258e-05 2.13921e-05 0)
(4.3628e-05 2.50169e-05 0)
(3.83155e-05 2.77358e-05 0)
(3.28469e-05 2.9594e-05 0)
(2.73616e-05 3.06542e-05 0)
(2.19787e-05 3.09922e-05 0)
(1.67964e-05 3.06921e-05 0)
(1.18937e-05 2.98411e-05 0)
(7.33334e-06 2.85261e-05 0)
(3.15785e-06 2.68315e-05 0)
(-6.03637e-07 2.48336e-05 0)
(-3.92736e-06 2.26213e-05 0)
(-6.8104e-06 2.02514e-05 0)
(-9.26256e-06 1.77859e-05 0)
(-1.12923e-05 1.52802e-05 0)
(-1.29152e-05 1.27775e-05 0)
(-1.41526e-05 1.03154e-05 0)
(-1.50264e-05 7.928e-06 0)
(-1.55618e-05 5.63717e-06 0)
(-1.57861e-05 3.46335e-06 0)
(-1.57264e-05 1.42193e-06 0)
(-1.54113e-05 -4.75357e-07 0)
(-1.48665e-05 -2.22102e-06 0)
(-1.4115e-05 -3.8127e-06 0)
(-1.31811e-05 -5.2462e-06 0)
(-1.20882e-05 -6.52151e-06 0)
(-1.0857e-05 -7.63868e-06 0)
(-9.50978e-06 -8.59882e-06 0)
(-8.06622e-06 -9.40229e-06 0)
(-6.54452e-06 -1.00389e-05 0)
(-4.96509e-06 -1.04511e-05 0)
(-3.36054e-06 -1.04525e-05 0)
(-1.81629e-06 -9.83647e-06 0)
(-4.52809e-07 -8.05391e-06 0)
(1.59549e-08 1.63926e-07 0)
(2.25804e-07 -4.6468e-07 0)
(6.32448e-07 -3.41931e-07 0)
(1.10293e-06 1.19692e-07 0)
(1.57189e-06 6.36449e-07 0)
(1.99094e-06 1.20456e-06 0)
(2.34023e-06 1.86753e-06 0)
(2.60411e-06 2.65412e-06 0)
(2.76882e-06 3.57555e-06 0)