/*--------------------------------*- C++ -*----------------------------------*\
| =========                 |                                                 |
| \\      /  F ield         | OpenFOAM: The Open Source CFD Toolbox           |
|  \\    /   O peration     | Version:  2312                                  |
|   \\  /    A nd           | Website:  www.openfoam.com                      |
|    \\/     M anipulation  |                                                 |
\*---------------------------------------------------------------------------*/
FoamFile
{
    version     2.0;
    format      ascii;
    arch        "LSB;label=32;scalar=64";
    class       surfaceScalarField;
    location    "0.2";
    object      alphaPhi0.water;
}
// * * * * * * * * * * * * * * * * * * * * * * * * * * * * * * * * * * * * * //

dimensions      [0 3 -1 0 0 0 0];

oriented        oriented;

internalField   nonuniform List<scalar> 
19800
(
-7.44863e-14
8.01776e-14
-4.02503e-12
3.95005e-12
-6.58372e-12
2.55787e-12
-7.28692e-12
7.02778e-13
-7.0583e-12
-2.2841e-13
-6.54026e-12
-5.17453e-13
-6.07607e-12
-4.6366e-13
-5.78696e-12
-2.88988e-13
-5.70981e-12
-7.75447e-14
-5.83167e-12
1.21107e-13
-6.15468e-12
3.22234e-13
-6.67694e-12
5.21837e-13
-7.38845e-12
7.11719e-13
-8.30036e-12
9.12764e-13
-9.41416e-12
1.11497e-12
-1.07336e-11
1.3203e-12
-1.22723e-11
1.53873e-12
-1.40424e-11
1.76889e-12
-1.60427e-11
1.99839e-12
-1.82843e-11
2.23984e-12
-2.07712e-11
2.48623e-12
-2.35044e-11
2.73433e-12
-2.64807e-11
2.97893e-12
-2.9693e-11
3.21558e-12
-3.31271e-11
3.43677e-12
-3.67633e-11
3.63763e-12
-4.05751e-11
3.81173e-12
-4.45295e-11
3.9532e-12
-4.85869e-11
4.05609e-12
-5.27033e-11
4.11573e-12
-5.68303e-11
4.12736e-12
-6.09161e-11
4.08698e-12
-6.49067e-11
3.99193e-12
-6.87468e-11
3.84113e-12
-7.23788e-11
3.63295e-12
-7.57464e-11
3.36868e-12
-7.87952e-11
3.05024e-12
-8.14765e-11
2.68283e-12
-8.37438e-11
2.26847e-12
-8.55622e-11
1.81904e-12
-8.68967e-11
1.33485e-12
-8.77232e-11
8.26879e-13
-8.80335e-11
3.10921e-13
-8.78326e-11
-2.00167e-13
-8.7138e-11
-6.94187e-13
-8.59476e-11
-1.19003e-12
-8.4316e-11
-1.63053e-12
-8.22774e-11
-2.03679e-12
-7.9894e-11
-2.38211e-12
-7.72285e-11
-2.66541e-12
-7.43401e-11
-2.88921e-12
-7.13042e-11
-3.03686e-12
-6.81864e-11
-3.11815e-12
-6.50553e-11
-3.13111e-12
-6.19732e-11
-3.08165e-12
-5.90022e-11
-2.97021e-12
-5.61912e-11
-2.81175e-12
-5.35802e-11
-2.6132e-12
-5.11993e-11
-2.38309e-12
-4.90688e-11
-2.13153e-12
-4.72025e-11
-1.86577e-12
-4.56034e-11
-1.599e-12
-4.42651e-11
-1.33824e-12
-4.31762e-11
-1.08888e-12
-4.23146e-11
-8.62033e-13
-4.16538e-11
-6.60805e-13
-4.11663e-11
-4.8848e-13
-4.08202e-11
-3.46388e-13
-4.058e-11
-2.39666e-13
-4.04122e-11
-1.66302e-13
-4.02842e-11
-1.27225e-13
-4.01641e-11
-1.18951e-13
-4.00223e-11
-1.41338e-13
-3.98327e-11
-1.88322e-13
-3.95742e-11
-2.58893e-13
-3.92274e-11
-3.46022e-13
-3.87771e-11
-4.50386e-13
-3.82127e-11
-5.65485e-13
-3.75268e-11
-6.87235e-13
-3.67143e-11
-8.13713e-13
-3.57741e-11
-9.41754e-13
-3.47034e-11
-1.07009e-12
-3.35089e-11
-1.19652e-12
-3.21973e-11
-1.3147e-12
-3.07768e-11
-1.42392e-12
-2.92494e-11
-1.52726e-12
-2.76206e-11
-1.63209e-12
-2.58836e-11
-1.73847e-12
-2.40296e-11
-1.85173e-12
-2.20583e-11
-1.97071e-12
-1.99708e-11
-2.08841e-12
-1.7777e-11
-2.19522e-12
-1.54907e-11
-2.28549e-12
-1.31363e-11
-2.35334e-12
-1.07451e-11
-2.39246e-12
-8.33529e-12
-2.40748e-12
-5.9282e-12
-2.40795e-12
-3.53001e-12
-2.39436e-12
-1.25296e-12
-2.27387e-12
-1.25255e-12
3.98741e-12
-3.90775e-12
4.05985e-12
3.87638e-12
2.11204e-12
4.50525e-12
3.09548e-13
2.50577e-12
-7.851e-13
8.67146e-13
-1.47446e-12
1.72487e-13
-1.96856e-12
3.02549e-14
-2.44733e-12
1.88859e-13
-2.99037e-12
4.64211e-13
-3.6913e-12
8.20921e-13
-4.57427e-12
1.20474e-12
-5.67259e-12
1.62059e-12
-7.01882e-12
2.05923e-12
-8.63694e-12
2.53252e-12
-1.0543e-11
3.02221e-12
-1.27514e-11
3.52857e-12
-1.52885e-11
4.07405e-12
-1.81452e-11
4.62294e-12
-2.13535e-11
5.20443e-12
-2.49119e-11
5.79771e-12
-2.88226e-11
6.39897e-12
-3.3085e-11
7.00083e-12
-3.76923e-11
7.59092e-12
-4.26329e-11
8.15989e-12
-4.78874e-11
8.69294e-12
-5.34284e-11
9.17843e-12
-5.92203e-11
9.60216e-12
-6.52176e-11
9.94911e-12
-7.13727e-11
1.02105e-11
-7.7627e-11
1.03706e-11
-8.39156e-11
1.04173e-11
-9.0169e-11
1.0342e-11
-9.63113e-11
1.01358e-11
-1.02261e-10
9.79267e-12
-1.07942e-10
9.31584e-12
-1.13268e-10
8.69673e-12
-1.1816e-10
7.94483e-12
-1.22545e-10
7.06975e-12
-1.2635e-10
6.07462e-12
-1.29518e-10
4.98739e-12
-1.31991e-10
3.80893e-12
-1.33738e-10
2.57534e-12
-1.34736e-10
1.30952e-12
-1.34974e-10
3.85101e-14
-1.3446e-10
-1.20796e-12
-1.33238e-10
-2.41067e-12
-1.31341e-10
-3.52484e-12
-1.28839e-10
-4.53707e-12
-1.25803e-10
-5.41801e-12
-1.2232e-10
-6.14885e-12
-1.18489e-10
-6.72098e-12
-1.144e-10
-7.12635e-12
-1.10158e-10
-7.35984e-12
-1.05861e-10
-7.42682e-12
-1.01608e-10
-7.33566e-12
-9.74795e-11
-7.10007e-12
-9.3544e-11
-6.74927e-12
-8.9862e-11
-6.29777e-12
-8.64751e-11
-5.77148e-12
-8.34217e-11
-5.18549e-12
-8.07116e-11
-4.57408e-12
-7.83513e-11
-3.95884e-12
-7.63351e-11
-3.35547e-12
-7.46456e-11
-2.77895e-12
-7.32482e-11
-2.26086e-12
-7.21121e-11
-1.7968e-12
-7.11915e-11
-1.40877e-12
-7.04458e-11
-1.09007e-12
-6.98309e-11
-8.52577e-13
-6.92979e-11
-6.96881e-13
-6.8809e-11
-6.15295e-13
-6.83145e-11
-6.11352e-13
-6.77775e-11
-6.77421e-13
-6.71642e-11
-7.9981e-13
-6.64484e-11
-9.7506e-13
-6.55951e-11
-1.19958e-12
-6.45877e-11
-1.45918e-12
-6.34117e-11
-1.74388e-12
-6.20563e-11
-2.04362e-12
-6.05173e-11
-2.352e-12
-5.87961e-11
-2.6673e-12
-5.68866e-11
-2.98469e-12
-5.47899e-11
-3.2954e-12
-5.25141e-11
-3.59173e-12
-5.00666e-11
-3.87497e-12
-4.74497e-11
-4.14613e-12
-4.46646e-11
-4.41543e-12
-4.17227e-11
-4.68351e-12
-3.86267e-11
-4.94798e-12
-3.53909e-11
-5.20692e-12
-3.20294e-11
-5.44833e-12
-2.8555e-11
-5.66958e-12
-2.49797e-11
-5.86284e-12
-2.13165e-11
-6.01284e-12
-1.75864e-11
-6.12123e-12
-1.38002e-11
-6.19126e-12
-9.97367e-12
-6.23643e-12
-6.11322e-12
-6.2614e-12
-2.32843e-12
-6.06457e-12
-3.58311e-12
2.54431e-12
-6.45289e-12
4.77511e-12
1.64531e-12
4.92958e-12
4.35117e-12
4.07025e-12
3.36578e-12
2.98882e-12
1.94891e-12
2.02117e-12
1.13977e-12
1.16405e-12
8.86351e-13
3.58888e-13
9.92754e-13
-4.9168e-13
1.31368e-12
-1.43713e-12
1.76572e-12
-2.56059e-12
2.32816e-12
-3.8815e-12
2.94218e-12
-5.45153e-12
3.63057e-12
-7.28352e-12
4.36605e-12
-9.41674e-12
5.15643e-12
-1.18837e-11
5.99536e-12
-1.46649e-11
6.8536e-12
-1.78104e-11
7.76624e-12
-2.1322e-11
8.71447e-12
-2.51937e-11
9.66939e-12
-2.94315e-11
1.06384e-11
-3.40321e-11
1.1604e-11
-3.89874e-11
1.25487e-11
-4.42824e-11
1.34566e-11
-4.9897e-11
1.43081e-11
-5.58026e-11
1.5084e-11
-6.19642e-11
1.57632e-11
-6.83398e-11
1.6324e-11
-7.48754e-11
1.67453e-11
-8.15149e-11
1.70095e-11
-8.81902e-11
1.70924e-11
-9.48312e-11
1.69833e-11
-1.01358e-10
1.66635e-11
-1.07684e-10
1.61197e-11
-1.13727e-10
1.53598e-11
-1.194e-10
1.43713e-11
-1.24607e-10
1.31538e-11
-1.29279e-10
1.17423e-11
-1.33321e-10
1.01183e-11
-1.3668e-10
8.34664e-12
-1.39295e-10
6.42496e-12
-1.41116e-10
4.39676e-12
-1.42122e-10
2.31473e-12
-1.42302e-10
2.18561e-13
-1.41667e-10
-1.84298e-12
-1.40253e-10
-3.82366e-12
-1.38109e-10
-5.66814e-12
-1.35297e-10
-7.34655e-12
-1.31907e-10
-8.80684e-12
-1.28034e-10
-1.00214e-11
-1.23783e-10
-1.09708e-11
-1.19265e-10
-1.16447e-11
-1.14592e-10
-1.20329e-11
-1.09872e-10
-1.21461e-11
-1.05206e-10
-1.20011e-11
-1.00684e-10
-1.16227e-11
-9.64078e-11
-1.10265e-11
-9.24144e-11
-1.02919e-11
-8.87616e-11
-9.4237e-12
-8.54716e-11
-8.47553e-12
-8.25831e-11
-7.46215e-12
-8.0078e-11
-6.46419e-12
-7.79529e-11
-5.48184e-12
-7.61786e-11
-4.55299e-12
-7.47423e-11
-3.69698e-12
-7.35786e-11
-2.95855e-12
-7.26557e-11
-2.32935e-12
-7.19221e-11
-1.82103e-12
-7.1334e-11
-1.43929e-12
-7.08362e-11
-1.19221e-12
-7.03891e-11
-1.06044e-12
-6.99381e-11
-1.05897e-12
-6.94525e-11
-1.16184e-12
-6.88899e-11
-1.36195e-12
-6.82172e-11
-1.64847e-12
-6.74137e-11
-2.00317e-12
-6.64495e-11
-2.42269e-12
-6.53122e-11
-2.88048e-12
-6.39867e-11
-3.36928e-12
-6.24668e-11
-3.87488e-12
-6.07467e-11
-4.38893e-12
-5.88219e-11
-4.91147e-12
-5.66891e-11
-5.42618e-12
-5.43569e-11
-5.9247e-12
-5.18246e-11
-6.40359e-12
-4.91072e-11
-6.87e-12
-4.62058e-11
-7.31821e-12
-4.31403e-11
-7.74778e-12
-3.99233e-11
-8.16333e-12
-3.65747e-11
-8.55683e-12
-3.3106e-11
-8.9204e-12
-2.9528e-11
-9.24974e-12
-2.58509e-11
-9.53759e-12
-2.20902e-11
-9.77565e-12
-1.8251e-11
-9.9598e-12
-1.43434e-11
-1.00955e-11
-1.03814e-11
-1.01968e-11
-6.37985e-12
-1.02603e-11
-2.47175e-12
-9.97647e-12
-6.0527e-12
6.81512e-13
-7.13485e-12
2.77266e-12
-4.44831e-13
3.92989e-12
3.19497e-12
4.0734e-12
3.22277e-12
3.69131e-12
2.33061e-12
3.09451e-12
1.73543e-12
2.41137e-12
1.56817e-12
1.65891e-12
1.74419e-12
8.20067e-13
2.15199e-12
-1.55933e-13
2.7416e-12
-1.28323e-12
3.45577e-12
-2.6329e-12
4.29273e-12
-4.21626e-12
5.21537e-12
-6.07858e-12
6.22994e-12
-8.24537e-12
7.32416e-12
-1.07272e-11
8.47693e-12
-1.35776e-11
9.70264e-12
-1.67752e-11
1.09622e-11
-2.03254e-11
1.22636e-11
-2.42597e-11
1.36036e-11
-2.85736e-11
1.49528e-11
-3.32628e-11
1.62939e-11
-3.83197e-11
1.76061e-11
-4.37296e-11
1.88672e-11
-4.94726e-11
2.0052e-11
-5.55216e-11
2.11338e-11
-6.18426e-11
2.20842e-11
-6.83928e-11
2.28729e-11
-7.51206e-11
2.34711e-11
-8.19648e-11
2.38517e-11
-8.88603e-11
2.3987e-11
-9.57331e-11
2.3856e-11
-1.02499e-10
2.34301e-11
-1.09068e-10
2.26894e-11
-1.15353e-10
2.1645e-11
-1.21256e-10
2.02754e-11
-1.26687e-10
1.85858e-11
-1.31557e-10
1.66133e-11
-1.35776e-10
1.43376e-11
-1.39274e-10
1.18457e-11
-1.41983e-10
9.13319e-12
-1.43857e-10
6.27038e-12
-1.44866e-10
3.32317e-12
-1.44997e-10
3.48164e-13
-1.44261e-10
-2.57919e-12
-1.42692e-10
-5.39227e-12
-1.40338e-10
-8.02013e-12
-1.3728e-10
-1.04012e-11
-1.33608e-10
-1.24771e-11
-1.29429e-10
-1.41993e-11
-1.24856e-10
-1.55433e-11
-1.20016e-10
-1.64857e-11
-1.15027e-10
-1.7022e-11
-1.10007e-10
-1.71637e-11
-1.0507e-10
-1.69367e-11
-1.00315e-10
-1.63769e-11
-9.58129e-11
-1.55296e-11
-9.16528e-11
-1.44525e-11
-8.78726e-11
-1.32021e-11
-8.45118e-11
-1.18358e-11
-8.15714e-11
-1.0403e-11
-7.90675e-11
-8.96819e-12
-7.69741e-11
-7.57576e-12
-7.52605e-11
-6.26516e-12
-7.38907e-11
-5.06514e-12
-7.28206e-11
-4.02597e-12
-7.20054e-11
-3.1418e-12
-7.13845e-11
-2.43926e-12
-7.09108e-11
-1.91154e-12
-7.05316e-11
-1.56811e-12
-7.01907e-11
-1.39911e-12
-6.98513e-11
-1.3977e-12
-6.94667e-11
-1.54703e-12
-6.89894e-11
-1.83913e-12
-6.84008e-11
-2.23614e-12
-6.76646e-11
-2.73832e-12
-6.6765e-11
-3.32132e-12
-6.56839e-11
-3.96204e-12
-6.44032e-11
-4.64979e-12
-6.2915e-11
-5.36534e-12
-6.12131e-11
-6.09161e-12
-5.92946e-11
-6.8295e-12
-5.71591e-11
-7.5569e-12
-5.48158e-11
-8.26941e-12
-5.22677e-11
-8.95283e-12
-4.95272e-11
-9.60881e-12
-4.66072e-11
-1.02382e-11
-4.3518e-11
-1.08397e-11
-4.02762e-11
-1.14061e-11
-3.68945e-11
-1.1936e-11
-3.33891e-11
-1.24246e-11
-2.978e-11
-1.28649e-11
-2.60689e-11
-1.32477e-11
-2.22732e-11
-1.35701e-11
-1.84021e-11
-1.38331e-11
-1.44581e-11
-1.40391e-11
-1.04619e-11
-1.41956e-11
-6.42484e-12
-1.42937e-11
-2.49555e-12
-1.39072e-11
-8.5533e-12
-2.11581e-13
-6.92299e-12
1.14352e-12
-1.79767e-12
2.50598e-12
1.83401e-12
3.20576e-12
2.52331e-12
3.3461e-12
2.18947e-12
3.16353e-12
1.91676e-12
2.77951e-12
1.95128e-12
2.25556e-12
2.26785e-12
1.57945e-12
2.82826e-12
7.37003e-13
3.5844e-12
-3.11754e-13
4.5051e-12
-1.57011e-12
5.55213e-12
-3.09611e-12
6.74286e-12
-4.8981e-12
8.03345e-12
-7.00776e-12
9.43466e-12
-9.45661e-12
1.09256e-11
-1.22413e-11
1.24864e-11
-1.54036e-11
1.41234e-11
-1.89576e-11
1.58167e-11
-2.28977e-11
1.75429e-11
-2.72335e-11
1.92875e-11
-3.19642e-11
2.10235e-11
-3.70837e-11
2.27253e-11
-4.25799e-11
2.43643e-11
-4.84346e-11
2.59084e-11
-5.46228e-11
2.73231e-11
-6.11104e-11
2.85713e-11
-6.78554e-11
2.96157e-11
-7.48055e-11
3.04185e-11
-8.18976e-11
3.0942e-11
-8.90669e-11
3.11557e-11
-9.62285e-11
3.10178e-11
-1.033e-10
3.05013e-11
-1.10186e-10
2.95757e-11
-1.16785e-10
2.82445e-11
-1.23001e-10
2.64914e-11
-1.28732e-10
2.43178e-11
-1.33873e-10
2.17544e-11
-1.38337e-10
1.8802e-11
-1.42027e-10
1.55356e-11
-1.44883e-10
1.1988e-11
-1.46846e-10
8.23233e-12
-1.47875e-10
4.35139e-12
-1.47963e-10
4.34662e-13
-1.47108e-10
-3.43404e-12
-1.45351e-10
-7.14765e-12
-1.4275e-10
-1.06193e-11
-1.39386e-10
-1.37624e-11
-1.35362e-10
-1.64998e-11
-1.30799e-10
-1.87624e-11
-1.25828e-10
-2.0515e-11
-1.20582e-10
-2.17314e-11
-1.15198e-10
-2.24047e-11
-1.09808e-10
-2.25512e-11
-1.04537e-10
-2.22067e-11
-9.94933e-11
-2.14218e-11
-9.47645e-11
-2.0259e-11
-9.04174e-11
-1.87998e-11
-8.6513e-11
-1.71043e-11
-8.30865e-11
-1.52608e-11
-8.01385e-11
-1.33514e-11
-7.76677e-11
-1.14385e-11
-7.56518e-11
-9.59145e-12
-7.40535e-11
-7.86205e-12
-7.28176e-11
-6.29969e-12
-7.19085e-11
-4.9331e-12
-7.12622e-11
-3.78571e-12
-7.08193e-11
-2.87943e-12
-7.05222e-11
-2.20811e-12
-7.03143e-11
-1.77567e-12
-7.01354e-11
-1.57789e-12
-6.99448e-11
-1.58976e-12
-6.96891e-11
-1.80312e-12
-6.93397e-11
-2.18777e-12
-6.88509e-11
-2.72464e-12
-6.82009e-11
-3.38803e-12
-6.73616e-11
-4.15973e-12
-6.63302e-11
-4.99289e-12
-6.5084e-11
-5.89762e-12
-6.36126e-11
-6.83616e-12
-6.1914e-11
-7.79147e-12
-5.99905e-11
-8.75311e-12
-5.78458e-11
-9.70166e-12
-5.54816e-11
-1.06276e-11
-5.29119e-11
-1.15234e-11
-5.01447e-11
-1.23765e-11
-4.71904e-11
-1.31915e-11
-4.40633e-11
-1.39637e-11
-4.07803e-11
-1.46895e-11
-3.7357e-11
-1.53645e-11
-3.38045e-11
-1.59771e-11
-3.01426e-11
-1.65256e-11
-2.63849e-11
-1.70052e-11
-2.25353e-11
-1.74147e-11
-1.86087e-11
-1.77584e-11
-1.46131e-11
-1.80342e-11
-1.05635e-11
-1.82484e-11
-6.48054e-12
-1.83796e-11
-2.51155e-12
-1.78697e-11
-1.10623e-11
-4.99309e-13
-6.42251e-12
4.39031e-13
-2.73276e-12
1.69937e-12
5.7549e-13
2.59865e-12
1.62433e-12
3.07899e-12
1.70843e-12
3.2293e-12
1.76573e-12
3.13659e-12
2.04388e-12
2.84233e-12
2.5626e-12
2.3595e-12
3.31179e-12
1.67763e-12
4.26689e-12
7.79269e-13
5.40416e-12
-3.70694e-13
6.70316e-12
-1.77677e-12
8.15036e-12
-3.48772e-12
9.74576e-12
-5.49903e-12
1.14468e-11
-7.86487e-12
1.32915e-11
-1.05975e-11
1.52187e-11
-1.37219e-11
1.72471e-11
-1.72326e-11
1.93261e-11
-2.11556e-11
2.1464e-11
-2.55022e-11
2.3632e-11
-3.02689e-11
2.57887e-11
-3.5453e-11
2.79096e-11
-4.10453e-11
2.99583e-11
-4.70311e-11
3.18962e-11
-5.33872e-11
3.36797e-11
-6.00812e-11
3.52639e-11
-6.70701e-11
3.66021e-11
-7.43001e-11
3.76466e-11
-8.1709e-11
3.835e-11
-8.92224e-11
3.8669e-11
-9.67579e-11
3.85532e-11
-1.04226e-10
3.79685e-11
-1.11524e-10
3.68741e-11
-1.18543e-10
3.52637e-11
-1.25172e-10
3.31207e-11
-1.313e-10
3.04449e-11
-1.36808e-10
2.72625e-11
-1.41597e-10
2.35898e-11
-1.45559e-10
1.9498e-11
-1.48618e-10
1.50466e-11
-1.50707e-10
1.03198e-11
-1.51774e-10
5.41711e-12
-1.51807e-10
4.67487e-13
-1.50798e-10
-4.44246e-12
-1.48801e-10
-9.14333e-12
-1.45876e-10
-1.35429e-11
-1.42106e-10
-1.7532e-11
-1.3762e-10
-2.0986e-11
-1.32551e-10
-2.38313e-11
-1.27048e-10
-2.60184e-11
-1.21264e-10
-2.75136e-11
-1.15358e-10
-2.83092e-11
-1.09482e-10
-2.8428e-11
-1.03773e-10
-2.79167e-11
-9.83522e-11
-2.68436e-11
-9.33177e-11
-2.52928e-11
-8.87525e-11
-2.33639e-11
-8.4697e-11
-2.11579e-11
-8.11944e-11
-1.87614e-11
-7.82457e-11
-1.63e-11
-7.58343e-11
-1.38497e-11
-7.39333e-11
-1.14931e-11
-7.24918e-11
-9.3035e-12
-7.14546e-11
-7.33567e-12
-7.07647e-11
-5.62127e-12
-7.03519e-11
-4.19778e-12
-7.01465e-11
-3.08447e-12
-7.00836e-11
-2.27274e-12
-7.01058e-11
-1.75694e-12
-7.01396e-11
-1.54545e-12
-7.01387e-11
-1.59116e-12
-7.00567e-11
-1.88418e-12
-6.98582e-11
-2.38481e-12
-6.95019e-11
-3.08176e-12
-6.89459e-11
-3.94341e-12
-6.82006e-11
-4.90497e-12
-6.72163e-11
-5.97643e-12
-6.60084e-11
-7.10915e-12
-6.45569e-11
-8.28897e-12
-6.28652e-11
-9.48413e-12
-6.09342e-11
-1.06792e-11
-5.87699e-11
-1.18633e-11
-5.63813e-11
-1.30176e-11
-5.37725e-11
-1.41295e-11
-5.09573e-11
-1.51886e-11
-4.79561e-11
-1.6199e-11
-4.47796e-11
-1.71455e-11
-4.14413e-11
-1.80288e-11
-3.79574e-11
-1.8846e-11
-3.43449e-11
-1.95885e-11
-3.06187e-11
-2.02508e-11
-2.67944e-11
-2.08324e-11
-2.28796e-11
-2.13309e-11
-1.88837e-11
-2.17533e-11
-1.48219e-11
-2.20984e-11
-1.07024e-11
-2.23654e-11
-6.55374e-12
-2.25278e-11
-2.53296e-12
-2.18931e-11
-1.35968e-11
-4.46751e-13
-5.97376e-12
3.07442e-13
-3.48321e-12
1.45321e-12
-5.6838e-13
2.43459e-12
6.43334e-13
3.11399e-12
1.02869e-12
3.5069e-12
1.37269e-12
3.65697e-12
1.89433e-12
3.58552e-12
2.63498e-12
3.3072e-12
3.59098e-12
2.80893e-12
4.76581e-12
2.07755e-12
6.13621e-12
1.08657e-12
7.6951e-12
-1.90918e-13
9.42911e-12
-1.76545e-12
1.13215e-11
-3.68775e-12
1.337e-11
-5.94226e-12
1.55466e-11
-8.58823e-12
1.78646e-11
-1.16319e-11
2.029e-11
-1.51063e-11
2.27987e-11
-1.9012e-11
2.53674e-11
-2.33552e-11
2.79733e-11
-2.81575e-11
3.05905e-11
-3.34143e-11
3.31677e-11
-3.91196e-11
3.56655e-11
-4.5261e-11
3.80387e-11
-5.18178e-11
4.02361e-11
-5.87587e-11
4.22032e-11
-6.60415e-11
4.38833e-11
-7.36132e-11
4.52176e-11
-8.14094e-11
4.61463e-11
-8.93518e-11
4.66112e-11
-9.73554e-11
4.65561e-11
-1.05318e-10
4.59307e-11
-1.13137e-10
4.46928e-11
-1.20687e-10
4.28137e-11
-1.27843e-10
4.02764e-11
-1.34479e-10
3.70798e-11
-1.4046e-10
3.3243e-11
-1.4567e-10
2.87995e-11
-1.49987e-10
2.38155e-11
-1.53312e-10
1.83709e-11
-1.55568e-10
1.25748e-11
-1.56696e-10
6.54402e-12
-1.5666e-10
4.31004e-13
-1.55479e-10
-5.62326e-12
-1.53172e-10
-1.14492e-11
-1.49819e-10
-1.68965e-11
-1.45549e-10
-2.18022e-11
-1.40456e-10
-2.60785e-11
-1.34735e-10
-2.95522e-11
-1.28545e-10
-3.2209e-11
-1.22068e-10
-3.39895e-11
-1.15492e-10
-3.4886e-11
-1.0899e-10
-3.49308e-11
-1.02722e-10
-3.4186e-11
-9.68254e-11
-3.27415e-11
-9.14094e-11
-3.07078e-11
-8.65616e-11
-2.82101e-11
-8.23399e-11
-2.53784e-11
-7.87533e-11
-2.23458e-11
-7.58164e-11
-1.92363e-11
-7.34984e-11
-1.61684e-11
-7.1752e-11
-1.3241e-11
-7.05243e-11
-1.05324e-11
-6.97533e-11
-8.10599e-12
-6.93429e-11
-6.03086e-12
-6.92284e-11
-4.31421e-12
-6.93331e-11
-2.98277e-12
-6.95729e-11
-2.03415e-12
-6.98753e-11
-1.45672e-12
-7.0182e-11
-1.23953e-12
-7.04228e-11
-1.35005e-12
-7.05587e-11
-1.74823e-12
-7.05366e-11
-2.40498e-12
-7.03308e-11
-3.28814e-12
-6.9914e-11
-4.36e-12
-6.92541e-11
-5.56486e-12
-6.83517e-11
-6.8811e-12
-6.71778e-11
-8.28431e-12
-6.57507e-11
-9.71576e-12
-6.40614e-11
-1.11702e-11
-6.21214e-11
-1.26225e-11
-5.99279e-11
-1.40511e-11
-5.74996e-11
-1.54461e-11
-5.48425e-11
-1.67897e-11
-5.19681e-11
-1.80643e-11
-4.89002e-11
-1.92657e-11
-4.56548e-11
-2.03917e-11
-4.22465e-11
-2.14399e-11
-3.86895e-11
-2.24038e-11
-3.50012e-11
-2.32765e-11
-3.11976e-11
-2.40532e-11
-2.72903e-11
-2.47359e-11
-2.32986e-11
-2.53268e-11
-1.92235e-11
-2.58251e-11
-1.50832e-11
-2.62391e-11
-1.08878e-11
-2.6563e-11
-6.6608e-12
-2.67556e-11
-2.56732e-12
-2.59861e-11
-1.61641e-11
-2.74535e-13
-5.69671e-12
4.61042e-13
-4.21528e-12
1.55967e-12
-1.66543e-12
2.60529e-12
-4.02062e-13
3.43937e-12
1.94374e-13
4.02894e-12
7.83229e-13
4.39757e-12
1.52639e-12
4.54446e-12
2.48902e-12
4.47295e-12
3.66324e-12
4.17388e-12
5.06539e-12
3.62897e-12
6.68165e-12
2.81416e-12
8.51077e-12
1.70772e-12
1.05368e-11
2.78541e-13
1.27521e-11
-1.49304e-12
1.51427e-11
-3.63895e-12
1.7693e-11
-6.18886e-12
2.04143e-11
-9.14492e-12
2.3245e-11
-1.25429e-11
2.61951e-11
-1.64146e-11
2.92376e-11
-2.07558e-11
3.23139e-11
-2.55942e-11
3.54298e-11
-3.09311e-11
3.85061e-11
-3.67633e-11
4.14988e-11
-4.30826e-11
4.43581e-11
-4.98706e-11
4.70233e-11
-5.70991e-11
4.94308e-11
-6.47277e-11
5.15117e-11
-7.27043e-11
5.31943e-11
-8.09633e-11
5.44051e-11
-8.94239e-11
5.5071e-11
-9.79977e-11
5.51292e-11
-1.06568e-10
5.45008e-11
-1.1502e-10
5.3145e-11
-1.23223e-10
5.1016e-11
-1.31035e-10
4.80871e-11
-1.38306e-10
4.43496e-11
-1.44886e-10
3.9823e-11
-1.50631e-10
3.45444e-11
-1.55402e-10
2.85869e-11
-1.59078e-10
2.20463e-11
-1.61554e-10
1.50504e-11
-1.62762e-10
7.75119e-12
-1.6266e-10
3.28299e-13
-1.61251e-10
-7.03225e-12
-1.58569e-10
-1.41312e-11
-1.54703e-10
-2.07622e-11
-1.49767e-10
-2.67384e-11
-1.43938e-10
-3.19073e-11
-1.37383e-10
-3.61075e-11
-1.30321e-10
-3.92723e-11
-1.22972e-10
-4.1339e-11
-1.15552e-10
-4.2307e-11
-1.08267e-10
-4.22162e-11
-1.01305e-10
-4.11497e-11
-9.48224e-11
-3.92253e-11
-8.8944e-11
-3.65858e-11
-8.37614e-11
-3.33912e-11
-7.93361e-11
-2.98028e-11
-7.56711e-11
-2.60095e-11
-7.27727e-11
-2.21341e-11
-7.05847e-11
-1.8357e-11
-6.90592e-11
-1.47674e-11
-6.81222e-11
-1.14704e-11
-6.76724e-11
-8.55701e-12
-6.76323e-11
-6.07236e-12
-6.78983e-11
-4.04967e-12
-6.83815e-11
-2.50177e-12
-6.89926e-11
-1.42296e-12
-6.96482e-11
-8.00756e-13
-7.02787e-11
-6.08657e-13
-7.08135e-11
-8.14155e-13
-7.12038e-11
-1.35925e-12
-7.1403e-11
-2.20682e-12
-7.13784e-11
-3.31294e-12
-7.11064e-11
-4.63484e-12
-7.05573e-11
-6.11135e-12
-6.97295e-11
-7.70833e-12
-6.86168e-11
-9.39558e-12
-6.72093e-11
-1.11261e-11
-6.55177e-11
-1.28579e-11
-6.35536e-11
-1.45888e-11
-6.13242e-11
-1.62837e-11
-5.88436e-11
-1.79281e-11
-5.61227e-11
-1.95079e-11
-5.31773e-11
-2.1008e-11
-5.00299e-11
-2.24119e-11
-4.66993e-11
-2.37264e-11
-4.32009e-11
-2.49389e-11
-3.95527e-11
-2.6052e-11
-3.57731e-11
-2.70575e-11
-3.18776e-11
-2.79532e-11
-2.78789e-11
-2.87352e-11
-2.37934e-11
-2.94126e-11
-1.96318e-11
-2.99874e-11
-1.54049e-11
-3.04632e-11
-1.11215e-11
-3.08387e-11
-6.80654e-12
-3.10691e-11
-2.62591e-12
-3.01693e-11
-1.8792e-11
-6.3364e-14
-5.63083e-12
7.46549e-13
-5.02274e-12
1.88601e-12
-2.80419e-12
3.02104e-12
-1.53747e-12
3.99425e-12
-7.79418e-13
4.77456e-12
2.80079e-15
5.35165e-12
9.49753e-13
5.72665e-12
2.11465e-12
5.87258e-12
3.51776e-12
5.78717e-12
5.15109e-12
5.45194e-12
7.01734e-12
4.83656e-12
9.12707e-12
3.92073e-12
1.14539e-11
2.67216e-12
1.40019e-11
1.06278e-12
1.67529e-11
-9.45469e-13
1.97013e-11
-3.34544e-12
2.28136e-11
-6.19965e-12
2.60982e-11
-9.52309e-12
2.95178e-11
-1.33402e-11
3.30548e-11
-1.76918e-11
3.66663e-11
-2.25411e-11
4.02802e-11
-2.79542e-11
4.39201e-11
-3.39241e-11
4.74688e-11
-4.04397e-11
5.08734e-11
-4.74876e-11
5.40708e-11
-5.50433e-11
5.69863e-11
-6.30703e-11
5.95387e-11
-7.1518e-11
6.16418e-11
-8.032e-11
6.32063e-11
-8.93941e-11
6.41443e-11
-9.86363e-11
6.43708e-11
-1.07937e-10
6.38015e-11
-1.17159e-10
6.23665e-11
-1.26156e-10
6.00119e-11
-1.34767e-10
5.66964e-11
-1.42822e-10
5.24036e-11
-1.50145e-10
4.71468e-11
-1.5656e-10
4.09603e-11
-1.61905e-10
3.39314e-11
-1.66027e-10
2.61684e-11
-1.68801e-10
1.78227e-11
-1.70131e-10
9.08025e-12
-1.69961e-10
1.58572e-13
-1.68288e-10
-8.70599e-12
-1.65143e-10
-1.72749e-11
-1.60628e-10
-2.52757e-11
-1.54889e-10
-3.2478e-11
-1.48118e-10
-3.86792e-11
-1.40531e-10
-4.3697e-11
-1.32386e-10
-4.74176e-11
-1.23948e-10
-4.97776e-11
-1.15479e-10
-5.07754e-11
-1.07229e-10
-5.0468e-11
-9.94156e-11
-4.89648e-11
-9.22238e-11
-4.64185e-11
-8.57949e-11
-4.30149e-11
-8.02263e-11
-3.89583e-11
-7.55793e-11
-3.44487e-11
-7.18498e-11
-2.97387e-11
-6.90135e-11
-2.497e-11
-6.70235e-11
-2.03474e-11
-6.57915e-11
-1.59997e-11
-6.52188e-11
-1.20438e-11
-6.51961e-11
-8.58101e-12
-6.56116e-11
-5.65825e-12
-6.6349e-11
-3.31063e-12
-6.72979e-11
-1.5513e-12
-6.83622e-11
-3.58915e-13
-6.9449e-11
2.85119e-13
-7.04616e-11
4.03593e-13
-7.13528e-11
7.56643e-14
-7.20403e-11
-6.72784e-13
-7.24988e-11
-1.75021e-12
-7.26801e-11
-3.13023e-12
-7.25697e-11
-4.74518e-12
-7.21444e-11
-6.53569e-12
-7.13988e-11
-8.4544e-12
-7.03394e-11
-1.04556e-11
-6.89442e-11
-1.25176e-11
-6.72427e-11
-1.45619e-11
-6.5247e-11
-1.65835e-11
-6.29653e-11
-1.85646e-11
-6.04173e-11
-2.04768e-11
-5.76197e-11
-2.23078e-11
-5.45893e-11
-2.40411e-11
-5.13465e-11
-2.56556e-11
-4.79132e-11
-2.7165e-11
-4.43098e-11
-2.85485e-11
-4.05534e-11
-2.98087e-11
-3.66687e-11
-3.09447e-11
-3.26618e-11
-3.19542e-11
-2.85593e-11
-3.28409e-11
-2.4369e-11
-3.36022e-11
-2.01056e-11
-3.42496e-11
-1.57825e-11
-3.47886e-11
-1.14068e-11
-3.52164e-11
-6.99475e-12
-3.5484e-11
-2.71443e-12
-3.44554e-11
-2.15032e-11
1.29988e-13
-5.75894e-12
1.09587e-12
-5.98784e-12
2.34898e-12
-4.05783e-12
3.61186e-12
-2.80161e-12
4.74981e-12
-1.91853e-12
5.72554e-12
-9.73445e-13
6.52724e-12
1.48117e-13
7.12328e-12
1.51885e-12
7.50769e-12
3.13349e-12
7.66001e-12
4.99893e-12
7.54759e-12
7.13032e-12
7.1592e-12
9.51654e-12
6.45667e-12
1.21577e-11
5.42068e-12
1.50387e-11
4.01046e-12
1.8163e-11
2.1976e-12
2.15133e-11
-6.10658e-14
2.50713e-11
-2.78513e-12
2.8822e-11
-6.01274e-12
3.2746e-11
-9.75726e-12
3.68005e-11
-1.40609e-11
4.09712e-11
-1.89705e-11
4.51905e-11
-2.44397e-11
4.93895e-11
-3.05435e-11
5.35726e-11
-3.7265e-11
5.75948e-11
-4.46003e-11
6.14059e-11
-5.25211e-11
6.49069e-11
-6.09983e-11
6.80153e-11
-6.99829e-11
7.06255e-11
-7.94098e-11
7.26323e-11
-8.91938e-11
7.39276e-11
-9.92283e-11
7.44047e-11
-1.0939e-10
7.39623e-11
-1.19528e-10
7.25031e-11
-1.29478e-10
6.99609e-11
-1.39059e-10
6.62758e-11
-1.48067e-10
6.14123e-11
-1.56296e-10
5.53761e-11
-1.63554e-10
4.82183e-11
-1.6962e-10
3.99981e-11
-1.74313e-10
3.08609e-11
-1.77475e-10
2.09833e-11
-1.78978e-10
1.05821e-11
-1.78742e-10
-7.66485e-14
-1.76759e-10
-1.06878e-11
-1.73067e-10
-2.09652e-11
-1.67763e-10
-3.058e-11
-1.61032e-10
-3.92101e-11
-1.53093e-10
-4.66212e-11
-1.44226e-10
-5.25661e-11
-1.34739e-10
-5.69048e-11
-1.24956e-10
-5.956e-11
-1.15198e-10
-6.05335e-11
-1.05766e-10
-5.99023e-11
-9.69225e-11
-5.78108e-11
-8.88815e-11
-5.44603e-11
-8.18058e-11
-5.0091e-11
-7.57982e-11
-4.49653e-11
-7.0914e-11
-3.93314e-11
-6.71373e-11
-3.35145e-11
-6.44356e-11
-2.76709e-11
-6.27146e-11
-2.20686e-11
-6.18729e-11
-1.68416e-11
-6.17734e-11
-1.21435e-11
-6.22844e-11
-8.0689e-12
-6.32679e-11
-4.67425e-12
-6.45827e-11
-1.99405e-12
-6.61021e-11
-3.00373e-14
-6.77105e-11
1.24903e-12
-6.93e-11
1.87181e-12
-7.07802e-11
1.88363e-12
-7.20687e-11
1.36093e-12
-7.31121e-11
3.68964e-13
-7.38567e-11
-1.00329e-12
-7.42763e-11
-2.70973e-12
-7.43477e-11
-4.67426e-12
-7.4055e-11
-6.82903e-12
-7.33934e-11
-9.11235e-12
-7.23694e-11
-1.14809e-11
-7.09919e-11
-1.38905e-11
-6.92694e-11
-1.62851e-11
-6.72171e-11
-1.86345e-11
-6.48673e-11
-2.09155e-11
-6.22349e-11
-2.31103e-11
-5.93402e-11
-2.5201e-11
-5.62039e-11
-2.71758e-11
-5.28504e-11
-2.90103e-11
-4.9297e-11
-3.07164e-11
-4.55709e-11
-3.22727e-11
-4.16921e-11
-3.36838e-11
-3.76839e-11
-3.4954e-11
-3.35592e-11
-3.60791e-11
-2.93327e-11
-3.70635e-11
-2.50256e-11
-3.79116e-11
-2.06492e-11
-3.86279e-11
-1.62146e-11
-3.9219e-11
-1.17352e-11
-3.96937e-11
-7.21895e-12
-3.99968e-11
-2.82531e-12
-3.88506e-11
-2.43284e-11
3.32147e-13
-6.09031e-12
1.48664e-12
-7.14329e-12
2.89924e-12
-5.47213e-12
4.33569e-12
-4.24003e-12
5.67331e-12
-3.2577e-12
6.87081e-12
-2.17176e-12
7.89155e-12
-8.72901e-13
8.73972e-12
6.70543e-13
9.38177e-12
2.49134e-12
9.78363e-12
4.59726e-12
9.92916e-12
6.98556e-12
9.79448e-12
9.65229e-12
9.34374e-12
1.26091e-11
8.54176e-12
1.58403e-11
7.35801e-12
1.93453e-11
5.75607e-12
2.31137e-11
3.69485e-12
2.71319e-11
1.13486e-12
3.13825e-11
-1.9545e-12
3.58366e-11
-5.61681e-12
4.0464e-11
-9.87496e-12
4.52301e-11
-1.47679e-11
5.00839e-11
-2.03447e-11
5.49667e-11
-2.65579e-11
5.97863e-11
-3.34938e-11
6.45308e-11
-4.11237e-11
6.90354e-11
-4.94458e-11
7.32281e-11
-5.84214e-11
7.69899e-11
-6.80107e-11
8.02138e-11
-7.81489e-11
8.27696e-11
-8.87492e-11
8.45268e-11
-9.97005e-11
8.53549e-11
-1.10866e-10
8.51269e-11
-1.2209e-10
8.37254e-11
-1.33179e-10
8.1049e-11
-1.43923e-10
7.70193e-11
-1.54092e-10
7.1582e-11
-1.63445e-10
6.47295e-11
-1.71722e-10
5.6497e-11
-1.78688e-10
4.69639e-11
-1.84118e-10
3.629e-11
-1.8779e-10
2.46544e-11
-1.89539e-10
1.23305e-11
-1.89266e-10
-3.48505e-13
-1.86926e-10
-1.30269e-11
-1.8257e-10
-2.53208e-11
-1.76315e-10
-3.68371e-11
-1.68356e-10
-4.71711e-11
-1.58986e-10
-5.59932e-11
-1.48536e-10
-6.30169e-11
-1.37389e-10
-6.80519e-11
-1.25948e-10
-7.1002e-11
-1.14609e-10
-7.18753e-11
-1.03736e-10
-7.07773e-11
-9.3646e-11
-6.79015e-11
-8.45954e-11
-6.3511e-11
-7.67689e-11
-5.79178e-11
-7.02759e-11
-5.14583e-11
-6.51461e-11
-4.44593e-11
-6.13749e-11
-3.72844e-11
-5.88778e-11
-3.01672e-11
-5.75339e-11
-2.34122e-11
-5.72131e-11
-1.71609e-11
-5.77191e-11
-1.16368e-11
-5.89013e-11
-6.8854e-12
-6.05894e-11
-2.98559e-12
-6.26096e-11
2.56449e-14
-6.48131e-11
2.1728e-12
-6.70838e-11
3.52052e-12
-6.92502e-11
4.0365e-12
-7.12696e-11
3.90425e-12
-7.30275e-11
3.12004e-12
-7.44706e-11
1.80836e-12
-7.55431e-11
6.73548e-14
-7.62214e-11
-2.02897e-12
-7.64865e-11
-4.40597e-12
-7.63273e-11
-6.98569e-12
-7.57481e-11
-9.69039e-12
-7.47588e-11
-1.24676e-11
-7.33784e-11
-1.52682e-11
-7.16193e-11
-1.80449e-11
-6.95003e-11
-2.07531e-11
-6.70562e-11
-2.33598e-11
-6.431e-11
-2.58568e-11
-6.12949e-11
-2.82191e-11
-5.80294e-11
-3.04406e-11
-5.45406e-11
-3.25033e-11
-5.08498e-11
-3.44097e-11
-4.69832e-11
-3.61408e-11
-4.29696e-11
-3.77032e-11
-3.88173e-11
-3.91025e-11
-3.45591e-11
-4.0344e-11
-3.01985e-11
-4.1424e-11
-2.57579e-11
-4.23503e-11
-2.12519e-11
-4.31316e-11
-1.6696e-11
-4.37735e-11
-1.20988e-11
-4.42909e-11
-7.4748e-12
-4.46281e-11
-2.95479e-12
-4.33664e-11
-2.72822e-11
5.3228e-13
-6.623e-12
1.90468e-12
-8.51783e-12
3.53314e-12
-7.10288e-12
5.17558e-12
-5.88462e-12
6.73807e-12
-4.82175e-12
8.17789e-12
-3.61251e-12
9.46503e-12
-2.16061e-12
1.05693e-11
-4.34174e-13
1.14769e-11
1.58362e-12
1.21656e-11
3.90891e-12
1.25955e-11
6.5565e-12
1.27492e-11
9.49913e-12
1.25735e-11
1.27842e-11
1.20449e-11
1.63672e-11
1.11244e-11
2.02637e-11
9.77092e-12
2.44659e-11
7.94096e-12
2.89618e-11
5.589e-12
3.37352e-11
2.6664e-12
3.876e-11
-8.6883e-13
4.39997e-11
-5.04575e-12
4.94075e-11
-9.91168e-12
5.49508e-11
-1.5513e-11
6.05692e-11
-2.18984e-11
6.61723e-11
-2.90292e-11
7.16612e-11
-3.69768e-11
7.69817e-11
-4.5718e-11
8.19681e-11
-5.52394e-11
8.65102e-11
-6.54984e-11
9.04719e-11
-7.64351e-11
9.37051e-11
-8.79634e-11
9.60537e-11
-9.99679e-11
9.73582e-11
-1.12304e-10
9.74618e-11
-1.24793e-10
9.62139e-11
-1.37226e-10
9.34815e-11
-1.49363e-10
8.91556e-11
-1.60933e-10
8.31531e-11
-1.7165e-10
7.54479e-11
-1.81208e-10
6.60555e-11
-1.89304e-10
5.50599e-11
-1.95655e-10
4.26402e-11
-1.99995e-10
2.8993e-11
-2.021e-10
1.44342e-11
-2.01824e-10
-6.24782e-13
-1.99099e-10
-1.57521e-11
-1.93953e-10
-3.04678e-11
-1.86537e-10
-4.42546e-11
-1.77087e-10
-5.66223e-11
-1.65947e-10
-6.71337e-11
-1.53539e-10
-7.54262e-11
-1.4034e-10
-8.12525e-11
-1.26853e-10
-8.44922e-11
-1.13569e-10
-8.51616e-11
-1.0094e-10
-8.34074e-11
-8.9352e-11
-7.94894e-11
-7.9106e-11
-7.37565e-11
-7.04135e-11
-6.66087e-11