/*--------------------------------*- C++ -*----------------------------------*\
| =========                 |                                                 |
| \\      /  F ield         | OpenFOAM: The Open Source CFD Toolbox           |
|  \\    /   O peration     | Version:  2312                                  |
|   \\  /    A nd           | Website:  www.openfoam.com                      |
|    \\/     M anipulation  |                                                 |
\*---------------------------------------------------------------------------*/
FoamFile
{
    version     2.0;
    format      ascii;
    arch        "LSB;label=32;scalar=64";
    class       volScalarField;
    location    "0.2";
    object      p;
}
// * * * * * * * * * * * * * * * * * * * * * * * * * * * * * * * * * * * * * //

dimensions      [1 -1 -2 0 0 0 0];

internalField   nonuniform List<scalar> 
10000
(
0
0.000214769
0.000352534
0.000454039
0.000534805
0.000603775
0.000664721
0.00071983
0.000770184
0.000816166
0.000857765
0.000894711
0.000926527
0.000952559
0.000971981
0.000983793
0.00098678
0.000979574
0.000960674
0.000928586
0.000881798
0.000818776
0.000737891
0.000637338
0.000515119
0.000369052
0.000196845
-3.83654e-06
-0.000235306
-0.000499835
-0.00079968
-0.00113712
-0.00151452
-0.00193427
-0.0023988
-0.00291046
-0.00347143
-0.0040838
-0.00474951
-0.00547033
-0.0062478
-0.00708315
-0.00797727
-0.00893023
-0.00994253
-0.0110144
-0.0121451
-0.0133331
-0.0145769
-0.0158742
-0.0172224
-0.0186185
-0.0200586
-0.0215384
-0.0230532
-0.024598
-0.0261675
-0.027756
-0.029358
-0.0309674
-0.0325783
-0.0341846
-0.0357806
-0.037361
-0.0389203
-0.0404537
-0.0419566
-0.0434248
-0.0448548
-0.0462432
-0.0475874
-0.0488852
-0.0501345
-0.0513339
-0.0524817
-0.0535778
-0.0546211
-0.0556118
-0.0565505
-0.0574371
-0.0582722
-0.0590568
-0.0597913
-0.060477
-0.0611147
-0.0617059
-0.0622514
-0.0627522
-0.0632099
-0.0636252
-0.0639991
-0.064333
-0.0646281
-0.0648848
-0.0651037
-0.0652858
-0.0654313
-0.065541
-0.065615
-0.0656547
0.000208814
0.000298495
0.00039144
0.000474623
0.000546753
0.000611798
0.000670731
0.000724853
0.000774791
0.000820841
0.000862844
0.000900483
0.000933241
0.000960433
0.000981215
0.00099454
0.000999166
0.000993677
0.000976604
0.000946441
0.000901714
0.000840902
0.000762349
0.000664205
0.000544417
0.000400776
0.000230986
3.27314e-05
-0.000196285
-0.000458341
-0.000755715
-0.00109074
-0.00146581
-0.00188339
-0.0023459
-0.0028557
-0.00341502
-0.00402596
-0.00469049
-0.00541043
-0.00618728
-0.00702222
-0.00791615
-0.00887015
-0.00988397
-0.0109574
-0.0120899
-0.0132802
-0.0145267
-0.0158271
-0.017179
-0.018579
-0.0200235
-0.021508
-0.0230277
-0.0245777
-0.0261526
-0.0277467
-0.0293543
-0.0309692
-0.0325855
-0.034197
-0.0357981
-0.0373834
-0.0389473
-0.040485
-0.0419919
-0.0434637
-0.0448969
-0.0462884
-0.0476352
-0.0489351
-0.0501859
-0.0513864
-0.052535
-0.0536314
-0.054675
-0.0556657
-0.056604
-0.0574904
-0.0583249
-0.0591086
-0.0598425
-0.0605274
-0.0611642
-0.0617541
-0.0622987
-0.0627983
-0.063255
-0.0636693
-0.0640424
-0.0643756
-0.0646699
-0.0649261
-0.0651445
-0.0653261
-0.0654711
-0.0655804
-0.0656545
-0.0656942
0.000335877
0.000380147
0.000440721
0.000504744
0.000566508
0.00062538
0.000681019
0.000733492
0.000782907
0.000829187
0.00087205
0.000911023
0.000945525
0.000974822
0.000998023
0.00101404
0.00102159
0.00101926
0.00100558
0.000979074
0.00093826
0.000881571
0.000807281
0.000713479
0.000598099
0.000458958
0.000293797
0.000100307
-0.000123848
-0.000381003
-0.000673501
-0.00100372
-0.00137412
-0.00178718
-0.00224541
-0.0027512
-0.00330686
-0.00391456
-0.00457631
-0.00529395
-0.00606905
-0.00690287
-0.00779646
-0.00875059
-0.00976583
-0.0108416
-0.0119773
-0.0131717
-0.0144233
-0.0157297
-0.0170885
-0.0184963
-0.0199494
-0.0214434
-0.0229732
-0.0245339
-0.0261199
-0.0277254
-0.0293443
-0.0309704
-0.0325977
-0.0342201
-0.0358317
-0.037427
-0.0390005
-0.0405469
-0.0420618
-0.0435407
-0.0449802
-0.0463771
-0.0477286
-0.0490323
-0.0502862
-0.051489
-0.0526393
-0.0537367
-0.0547807
-0.0557715
-0.0567092
-0.0575944
-0.0584278
-0.05921
-0.0599423
-0.0606251
-0.0612598
-0.0618474
-0.0623896
-0.0628873
-0.063342
-0.0637542
-0.0641255
-0.064457
-0.06475
-0.0650046
-0.0652217
-0.0654023
-0.0655466
-0.0656553
-0.0657289
-0.0657681
0.000420213
0.000446145
0.00048755
0.00053747
0.000589799
0.000642658
0.000694723
0.000745356
0.000794217
0.000840961
0.000885109
0.000926053
0.000963094
0.000995425
0.00102209
0.00104195
0.0010537
0.00105593
0.00104719
0.00102601
0.000990857
0.000940084
0.00087189
0.000784342
0.000675404
0.000542941
0.000384704
0.000198337
-1.85667e-05
-0.000268413
-0.000553596
-0.000876544
-0.00123978
-0.00164588
-0.00209744
-0.00259694
-0.00314678
-0.00374919
-0.00440628
-0.00511996
-0.00589191
-0.00672358
-0.00761614
-0.00857047
-0.00958707
-0.0106657
-0.0118057
-0.0130059
-0.0142646
-0.0155798
-0.0169489
-0.0183684
-0.0198346
-0.0213429
-0.0228882
-0.0244651
-0.026068
-0.0276907
-0.0293271
-0.0309705
-0.0326148
-0.0342539
-0.0358817
-0.0374925
-0.0390804
-0.0406401
-0.042167
-0.0436569
-0.0451059
-0.0465111
-0.0478696
-0.0491789
-0.0504376
-0.0516438
-0.0527966
-0.0538954
-0.0549398
-0.0559302
-0.056867
-0.0577505
-0.0585817
-0.0593615
-0.060091
-0.0607707
-0.0614018
-0.0619863
-0.062525
-0.0630193
-0.0634707
-0.06388
-0.0642485
-0.0645773
-0.0648678
-0.0651202
-0.0653354
-0.0655142
-0.0656572
-0.0657652
-0.0658382
-0.0658767
0.000478381
0.000495774
0.000526499
0.000566984
0.000612237
0.00066023
0.00070934
0.000758634
0.000807488
0.000855313
0.000901434
0.00094513
0.000985586
0.00102192
0.00105311
0.00107799
0.00109522
0.00110344
0.00110118
0.00108697
0.00105918
0.00101609
0.000955863
0.000876582
0.000776259
0.000652765
0.000503797
0.00032692
0.00011966
-0.000120427
-0.00039578
-0.000708912
-0.00106246
-0.00145912
-0.00190159
-0.00239244
-0.00293416
-0.00352911
-0.00417957
-0.00488758
-0.00565496
-0.00648334
-0.00737408
-0.00832819
-0.00934626
-0.0104282
-0.0115735
-0.012781
-0.0140492
-0.015376
-0.0167588
-0.0181942
-0.019678
-0.0212056
-0.0227716
-0.0243705
-0.0259964
-0.0276426
-0.0293027
-0.0309698
-0.0326375
-0.0342993
-0.0359491
-0.0375806
-0.0391879
-0.0407657
-0.042309
-0.0438134
-0.0452754
-0.0466916
-0.0480596
-0.0493766
-0.0506414
-0.0518521
-0.0530078
-0.0541081
-0.0551531
-0.0561428
-0.0570778
-0.0579592
-0.0587873
-0.0595635
-0.0602888
-0.0609644
-0.0615908
-0.0621706
-0.0627046
-0.0631945
-0.0636413
-0.0640463
-0.064411
-0.0647364
-0.0650234
-0.0652729
-0.0654854
-0.065662
-0.0658032
-0.0659098
-0.0659823
-0.0660203
0.000519028
0.000532319
0.000556971
0.000591451
0.000631851
0.000676391
0.000723532
0.000772286
0.000821872
0.000871528
0.000920433
0.000967711
0.00101249
0.00105381
0.0010906
0.00112168
0.00114572
0.00116135
0.00116712
0.00116147
0.00114273
0.00110913
0.00105883
0.000989959
0.000900517
0.000788311
0.00065095
0.000485938
0.000290773
6.29812e-05
-0.000199956
-0.000500686
-0.000841981
-0.00122665
-0.00165748
-0.00213715
-0.00266832
-0.00325357
-0.00389532
-0.00459581
-0.00535703
-0.00618081
-0.00706876
-0.00802208
-0.0090415
-0.0101272
-0.0112787
-0.0124951
-0.013775
-0.0151164
-0.0165165
-0.0179718
-0.0194778
-0.0210298
-0.0226223
-0.0242493
-0.0259045
-0.0275807
-0.0292712
-0.0309686
-0.0326661
-0.034357
-0.0360347
-0.0376926
-0.0393247
-0.0409254
-0.0424893
-0.0440123
-0.0454906
-0.0469207
-0.0483004
-0.0496271
-0.0508991
-0.0521151
-0.0532741
-0.0543762
-0.0554215
-0.0564102
-0.0573427
-0.0582207
-0.0590448
-0.0598163
-0.0605362
-0.0612058
-0.0618267
-0.0624005
-0.0629283
-0.0634121
-0.0638534
-0.0642534
-0.0646131
-0.0649336
-0.0652162
-0.0654619
-0.0656714
-0.0658453
-0.0659844
-0.0660891
-0.0661602
-0.0661977
0.000546023
0.000557326
0.000578728
0.000609629
0.000647075
0.000689629
0.000735986
0.000785201
0.000836425
0.000888772
0.000941304
0.000993067
0.00104311
0.00109039
0.00113389
0.0011724
0.0012046
0.00122908
0.00124438
0.00124889
0.00124092
0.00121871
0.00118043
0.00112418
0.0010479
0.00094928
0.000825877
0.000675171
0.000494649
0.000281769
3.38807e-05
-0.00025181
-0.00057819
-0.000948161
-0.00136462
-0.00183045
-0.00234854
-0.00292168
-0.00355248
-0.00424337
-0.00499658
-0.00581422
-0.00669819
-0.00764993
-0.0086704
-0.00976002
-0.0109186
-0.0121456
-0.0134395
-0.0147983
-0.0162192
-0.0176986
-0.0192318
-0.0208137
-0.0224387
-0.0241002
-0.0257913
-0.0275045
-0.0292323
-0.0309671
-0.0327015
-0.0344282
-0.03614
-0.0378305
-0.0394929
-0.0411214
-0.0427106
-0.044256
-0.0457539
-0.0472008
-0.0485943
-0.049932
-0.0512124
-0.0524343
-0.0535972
-0.0547009
-0.0557461
-0.0567331
-0.0576627
-0.0585363
-0.059355
-0.0601201
-0.0608336
-0.0614958
-0.0621092
-0.0626758
-0.0631964
-0.063673
-0.0641072
-0.0645005
-0.0648539
-0.0651689
-0.0654464
-0.0656873
-0.065893
-0.0660635
-0.0661997
-0.0663022
-0.0663719
-0.0664087
0.000561646
0.000572061
0.000591941
0.000620953
0.000656987
0.000698933
0.000745671
0.000796386
0.000850183
0.000906096
0.000963119
0.00102025
0.00107652
0.00113089
0.00118222
0.00122945
0.00127116
0.00130591
0.00133226
0.00134858
0.0013532
0.00134437
0.00132024
0.00127882
0.00121794
0.00113522
0.00102819
0.000894336
0.000731086
0.00053579
0.000305656
3.77723e-05
-0.000270846
-0.000623225
-0.00102245
-0.00147166
-0.00197397
-0.00253237
-0.00314967
-0.00382856
-0.00457163
-0.00538135
-0.0062599
-0.00720908
-0.00823016
-0.00932388
-0.0104904
-0.0117292
-0.0130392
-0.0144183
-0.0158637
-0.0173715
-0.0189371
-0.0205549
-0.0222187
-0.0239214
-0.0256557
-0.0274133
-0.0291861
-0.0309659
-0.0327446
-0.0345143
-0.0362673
-0.0379965
-0.039695
-0.0413565
-0.0429756
-0.0445475
-0.0460681
-0.0475344
-0.0489436
-0.050294
-0.0515836
-0.052812
-0.0539789
-0.0550842
-0.056129
-0.0571134
-0.0580388
-0.0589069
-0.0597188
-0.060476
-0.0611809
-0.0618348
-0.0624395
-0.0629969
-0.0635084
-0.0639762
-0.0644023
-0.0647877
-0.0651337
-0.0654417
-0.065713
-0.0659484
-0.0661491
-0.0663157
-0.0664488
-0.0665487
-0.0666165
-0.0666526
0.000567025
0.000577229
0.000596628
0.000624963
0.000660851
0.000703473
0.000751618
0.000804823
0.000862104
0.000922451
0.000984837
0.00104827
0.00111177
0.00117433
0.00123481
0.00129203
0.00134464
0.00139103
0.00143001
0.00145988
0.00147898
0.00148554
0.00147765
0.00145322
0.00140998
0.00134554
0.0012574
0.00114302
0.000999736
0.000824785
0.00061526
0.000368144
8.03228e-05
-0.000251424
-0.000630414
-0.00106002
-0.00154357
-0.00208427
-0.0026852
-0.00334942
-0.00407994
-0.00487963
-0.00575107
-0.00669643
-0.00771739
-0.00881507
-0.00998996
-0.0112419
-0.0125699
-0.0139722
-0.015446
-0.016987
-0.0185904
-0.0202501
-0.0219596
-0.0237111
-0.0254963
-0.0273065
-0.0291327
-0.0309657
-0.0327968
-0.0346172
-0.0364187
-0.0381933
-0.039934
-0.0416341
-0.0432879
-0.0448902
-0.0464366
-0.0479245
-0.0493516
-0.050716
-0.0520158
-0.0532512
-0.0544221
-0.0555284
-0.0565718
-0.0575526
-0.0584724
-0.0593334
-0.0601369
-0.0608849
-0.0615795
-0.0622227
-0.0628167
-0.0633634
-0.0638645
-0.0643219
-0.0647381
-0.0651143
-0.0654516
-0.0657517
-0.0660154
-0.0662443
-0.0664393
-0.066601
-0.0667301
-0.0668274
-0.0668934
-0.066929
0.000562484
0.000573052
0.000592605
0.000621198
0.000657872
0.000701843
0.000752751
0.00080944
0.000871086
0.000936723
0.00100537
0.00107607
0.0011479
0.00121982
0.00129069
0.00135926
0.00142424
0.00148347
0.00153685
0.00158207
0.00161754
0.00164145
0.00165183
0.00164653
0.00162324
0.00157953
0.00151287
0.00142064
0.00130012
0.00114843
0.000962558
0.000739352
0.000475508
0.00016759
-0.000187945
-0.000594673
-0.00105614
-0.00157583
-0.00215721
-0.00280376
-0.00351897
-0.00430616
-0.00516839
-0.00610831
-0.007128
-0.00822909
-0.00941253
-0.0106786
-0.0120267
-0.0134553
-0.0149612
-0.0165403
-0.0181872
-0.0198957
-0.0216584
-0.0234669
-0.0253119
-0.0271836
-0.0290722
-0.0309676
-0.0328598
-0.0347392
-0.0365969
-0.0384242
-0.0402136
-0.0419581
-0.0436516
-0.0452887
-0.0468632
-0.0483755
-0.0498221
-0.0512013
-0.0525125
-0.0537552
-0.0549294
-0.056036
-0.0570765
-0.0580523
-0.0589651
-0.0598172
-0.0606101
-0.0613469
-0.0620293
-0.0626601
-0.0632416
-0.0637754
-0.0642641
-0.0647098
-0.0651145
-0.0654798
-0.0658068
-0.0660974
-0.0663529
-0.0665742
-0.0667627
-0.0669191
-0.0670439
-0.067138
-0.0672021
-0.0672366
0.000548166
0.000559127
0.000579427
0.000609089
0.000647492
0.000694072
0.000748262
0.000809203
0.000876024
0.000947807
0.00102365
0.00110267
0.00118393
0.00126638
0.00134883
0.00142997
0.00150849
0.00158288
0.00165201
0.00171428
0.00176792
0.00181107
0.00184174
0.00185777
0.00185679
0.00183633
0.00179379
0.0017265
0.00163167
0.00150633
0.00134732
0.00115129
0.000914765
0.000634107
0.000305575
-7.46368e-05
-0.000510358
-0.00100543
-0.00156373
-0.00218924
-0.00288593
-0.00365768
-0.00450808
-0.00544033
-0.00645714
-0.00756071
-0.00875264
-0.0100338
-0.0114038
-0.0128614
-0.0144034
-0.0160257
-0.0177227
-0.0194875
-0.0213119
-0.0231863
-0.0251006
-0.0270439
-0.0290049
-0.0309724
-0.0329353
-0.034883
-0.0368053
-0.0386931
-0.040538
-0.0423328
-0.0440716
-0.0457437
-0.0473531
-0.0488929
-0.0503609
-0.0517561
-0.053078
-0.0543274
-0.055504
-0.0566096
-0.0576459
-0.0586146
-0.0595183
-0.0603593
-0.0611398
-0.0618629
-0.0625311
-0.0631472
-0.0637137
-0.0642329
-0.0647071
-0.0651389
-0.0655302
-0.0658826
-0.0661983
-0.0664781
-0.0667242
-0.0669371
-0.0671183
-0.0672683
-0.0673883
-0.0674787
-0.0675409
-0.0675742
0.00052355
0.000535099
0.000556568
0.000587953
0.000628827
0.000678715
0.000737031
0.00080302
0.000875827
0.000954644
0.00103865
0.00112703
0.00121882
0.00131293
0.00140815
0.0015032
0.00159681
0.00168765
0.00177435
0.00185536
0.00192893
0.0019932
0.00204625
0.00208586
0.00210961
0.00211495
0.00209925
0.00205982
0.00199376
0.00189797
0.00176912
0.0016037
0.00139807
0.00114842
0.000850782
0.00050105
9.50594e-05
-0.000371413
-0.000902703
-0.0015033
-0.00217777
-0.00293056
-0.00376592
-0.00468773
-0.00569947
-0.00680413
-0.00800402
-0.00930058
-0.0106941
-0.0121834
-0.0137658
-0.015437
-0.017191
-0.0190203
-0.0209155
-0.022866
-0.0248604
-0.0268862
-0.0289308
-0.0309815
-0.0330258
-0.0350518
-0.0370482
-0.0390047
-0.0409123
-0.0427632
-0.0445472
-0.0462668
-0.0479126
-0.0494816
-0.0509723
-0.0523838
-0.0537165
-0.0549709
-0.0561494
-0.0572523
-0.0582824
-0.0592421
-0.0601341
-0.0609615
-0.061727
-0.062434
-0.0630852
-0.063684
-0.0642332
-0.0647353
-0.0651928
-0.0656087
-0.0659849
-0.0663228
-0.0666252
-0.0668931
-0.0671283
-0.0673316
-0.0675047
-0.0676477
-0.0677624
-0.0678489
-0.0679084
-0.0679404
0.000488074
0.000500408
0.000523421
0.000557078
0.000601051
0.000654901
0.000718056
0.000789819
0.000869448
0.000956197
0.00104934
0.00114807
0.00125142
0.00135829
0.00146747
0.00157777
0.00168795
0.00179667
0.00190253
0.00200395
0.00209929
0.00218656
0.00226414
0.00232962
0.00238052
0.00241429
0.00242828
0.00241972
0.00238559
0.00232264
0.00222738
0.00209622
0.00192537
0.00171079
0.00144822
0.00113324
0.000761334
0.000327865
-0.000171994
-0.000743291
-0.00139121
-0.0021209
-0.00293733
-0.00384526
-0.00484907
-0.00595264
-0.00715918
-0.00847098
-0.00988912
-0.011413
-0.0130402
-0.0147663
-0.0165849
-0.0184876
-0.0204639
-0.022502
-0.0245885
-0.0267094
-0.0288503
-0.0309967
-0.0331344
-0.0352499
-0.0373306
-0.039365
-0.0413431
-0.0432554
-0.0450978
-0.0468636
-0.0485481
-0.050148
-0.0516624
-0.0530906
-0.0544336
-0.0556927
-0.0568703
-0.0579681
-0.0589891
-0.0599367
-0.0608141
-0.0616248
-0.062372
-0.0630598
-0.0636914
-0.0642704
-0.0647994
-0.065282
-0.0657206
-0.0661184
-0.0664772
-0.0667991
-0.0670866
-0.067341
-0.067564
-0.0677568
-0.0679207
-0.0680561
-0.0681643
-0.0682468
-0.0683031
-0.0683336
0.000441123
0.000454447
0.000479343
0.000515737
0.000563337
0.000621723
0.000690354
0.000768605
0.000855843
0.000951403
0.00105458
0.00116459
0.00128048
0.00140117
0.00152553
0.00165239
0.00178052
0.00190856
0.00203508
0.00215858
0.00227748
0.00239
0.00249414
0.00258774
0.00266827
0.00273317
0.00277974
0.00280512
0.00280614
0.00277943
0.00272144
0.00262847
0.00249653
0.00232131
0.00209825
0.00182263
0.00148958
0.001094
0.000630507
9.34883e-05
-0.000522902
-0.00122458
-0.00201741
-0.00290711
-0.00389908
-0.00499834
-0.00620939
-0.00753567
-0.00897924
-0.0105402
-0.0122166
-0.014004
-0.0158954
-0.0178817
-0.0199509
-0.0220894
-0.024282
-0.0265125
-0.0287642
-0.0310205
-0.0332652
-0.0354826
-0.037659
-0.0397814
-0.0418384
-0.0438219
-0.0457248
-0.0475414
-0.0492675
-0.0509002
-0.0524385
-0.053883
-0.0552348
-0.0564965
-0.0576705
-0.0587604
-0.0597693
-0.0607012
-0.0615602
-0.0623506
-0.0630765
-0.0637418
-0.0643503
-0.0649062
-0.0654123
-0.0658728
-0.06629
-0.0666672
-0.0670066
-0.0673102
-0.0675814
-0.0678209
-0.0680302
-0.068211
-0.0683642
-0.0684913
-0.0685929
-0.0686703
-0.0687234
-0.0687522
0.000382049
0.00039655
0.000423627
0.000463136
0.000514804
0.00057823
0.00065292
0.000738331
0.000833915
0.000939123
0.00105313
0.0011753
0.00130469
0.00144027
0.00158098
0.00172565
0.00187302
0.00202176
0.0021705
0.00231782
0.0024622
0.00260189
0.00273484
0.00285883
0.00297148
0.00307022
0.00315231
0.00321473
0.00325422
0.00326736
0.00325053
0.00319987
0.00311116
0.00297982
0.00280103
0.00256976
0.00228076
0.00192843
0.00150683
0.00100973
0.0004306
-0.000237309
-0.00100082
-0.00186673
-0.0028417
-0.00393234
-0.00514477
-0.00648391
-0.00795297
-0.00955314
-0.011283
-0.0131385
-0.0151121
-0.0171933
-0.0193688
-0.0216227
-0.0239376
-0.0262945
-0.0286737
-0.031056
-0.0334227
-0.0357563
-0.0380412
-0.0402628
-0.0424079
-0.0444691
-0.0464385
-0.0483102
-0.0500803
-0.0517465
-0.0533084
-0.054768
-0.0561269
-0.0573882
-0.0585557
-0.0596336
-0.0606264
-0.0615387
-0.0623753
-0.0631412
-0.0638417
-0.0644807
-0.0650628
-0.0655919
-0.0660719
-0.0665069
-0.0669
-0.067254
-0.0675717
-0.0678553
-0.0681076
-0.0683305
-0.0685247
-0.0686923
-0.0688342
-0.0689517
-0.0690461
-0.0691177
-0.069167
-0.069194
0.000310102
0.000325943
0.000355432
0.000398357
0.000454465
0.000523388
0.000604685
0.000697878
0.000802464
0.000917879
0.00104363
0.00117883
0.00132266
0.00147419
0.00163235
0.00179599
0.00196386
0.00213469
0.00230723
0.00248013
0.00265188
0.00282069
0.00298456
0.00314131
0.00328859
0.00342386
0.00354437
0.003647
0.00372845
0.00378525
0.00381364
0.00380956
0.00376857
0.0036859
0.00355647
0.00337493
0.0031356
0.00283241
0.00245884
0.00200804
0.0014728
0.000845516
0.000118311
-0.000717
-0.00166854
-0.00274495
-0.00395419
-0.00530309
-0.0067966
-0.00843743
-0.0102252
-0.012156
-0.0142221
-0.0164114
-0.0187087
-0.0210956
-0.0235514
-0.0260542
-0.0285802
-0.0311072
-0.0336133
-0.0360785
-0.0384862
-0.0408172
-0.0430621
-0.0452088
-0.0472501
-0.0491804
-0.0509964
-0.0526967
-0.0542817
-0.0557539
-0.0571166
-0.0583738
-0.0595307
-0.0605921
-0.0615638
-0.0624514
-0.0632609
-0.0639976
-0.0646679
-0.065276
-0.0658277
-0.0663262
-0.0667766
-0.0671828
-0.0675485
-0.067877
-0.0681702
-0.0684319
-0.0686638
-0.0688682
-0.0690461
-0.0691989
-0.0693286
-0.0694356
-0.0695218
-0.0695873
-0.0696326
-0.0696577
0.000224371
0.000241678
0.000273749
0.000320336
0.000381218
0.000456066
0.000544483
0.000646034
0.000760265
0.000886686
0.00102478
0.0011738
0.001333
0.00150144
0.00167807
0.00186176
0.00205136
0.00224572
0.00244365
0.00264383
0.00284474
0.00304462
0.00324152
0.00343333
0.00361777
0.0037923
0.00395412
0.00410021
0.00422725
0.00433161
0.00440938
0.00445631
0.00446779
0.00443887
0.00436425
0.00423821
0.00405461
0.00380694
0.00348819
0.00309091
0.00260719
0.00202856
0.00134595
0.000549699
-0.000370605
-0.00142535
-0.00262489
-0.00397865
-0.00549414
-0.00717623
-0.00902595
-0.0110399
-0.0132099
-0.0155226
-0.01796
-0.0205003
-0.0231187
-0.0257911
-0.0284863
-0.0311787
-0.0338437
-0.0364574
-0.0390069
-0.0414608
-0.0438138
-0.0460538
-0.0481724
-0.0501647
-0.052028
-0.0537616
-0.0553676
-0.0568496
-0.058212
-0.05946
-0.0606005
-0.0616397
-0.062585
-0.0634424
-0.0642189
-0.0649213
-0.0655562
-0.0661285
-0.0666446
-0.0671088
-0.0675256
-0.0678998
-0.068235
-0.0685349
-0.0688016
-0.0690386
-0.0692482
-0.069432
-0.069592
-0.069729
-0.069845
-0.069941
-0.0700181
-0.0700766
-0.0701174
-0.0701403
0.000123772
0.000142622
0.000177411
0.000227884
0.000293856
0.000375028
0.000471026
0.000581445
0.000705882
0.000843921
0.000995088
0.00115878
0.00133418
0.0015204
0.00171643
0.00192125
0.00213384
0.00235313
0.00257796
0.00280702
0.00303882
0.00327166
0.00350368
0.00373283
0.00395688
0.00417338
0.00437958
0.00457238
0.00474868
0.00490456
0.00503599
0.00513856
0.00520752
0.00523775
0.00522368
0.00515924
0.00503788
0.00485268
0.00459621
0.00426049
0.00383691
0.00331604
0.00268756
0.00194017
0.00106156
3.84533e-05
-0.00114243
-0.00249388
-0.00402682
-0.0057492
-0.00766433
-0.00976981
-0.012057
-0.0145107
-0.0171098
-0.0198282
-0.0226381
-0.0255025
-0.0283926
-0.0312767
-0.0341251
-0.0369104
-0.0396103
-0.0422045
-0.0446778
-0.0470192
-0.0492208
-0.0512776
-0.0531884
-0.054954
-0.0565775
-0.0580642
-0.0594206
-0.0606538
-0.0617715
-0.0627818
-0.0636937
-0.0645141
-0.0652513
-0.0659131
-0.0665063
-0.0670381
-0.0675134
-0.0679384
-0.068318
-0.0686563
-0.0689578
-0.0692255
-0.069463
-0.069673
-0.0698581
-0.0700198
-0.07016
-0.0702799
-0.0703809
-0.0704649
-0.0705323
-0.0705836
-0.0706198
-0.0706403
7.08441e-06
2.75233e-05
6.51594e-05
0.000119734
0.000191089
0.000278938
0.000382919
0.000502667
0.000637854
0.000788149
0.000953129
0.0011322
0.00132457
0.00152935
0.0017457
0.00197273
0.00220951
0.00245503
0.00270816
0.00296762
0.00323197
0.0034996
0.00376873
0.00403741
0.00430352
0.00456471
0.00481832
0.00506131
0.00529041
0.0055018
0.00569131
0.00585439
0.00598611
0.00608113
0.00613362
0.00613724
0.00608507
0.00596982
0.00578375
0.00551837
0.0051644
0.00471157
0.00414843
0.0034621
0.00263793
0.00165938
0.000509353
-0.000829277
-0.00237216
-0.00413176
-0.00611491
-0.00832073
-0.0107402
-0.0133556
-0.0161435
-0.0190703
-0.0220971
-0.0251878
-0.0283043
-0.0314096
-0.0344689
-0.0374447
-0.0403189
-0.0430674
-0.0456734
-0.0481244
-0.0504133
-0.0525366
-0.0544937
-0.0562877
-0.0579237
-0.0594094
-0.0607525
-0.0619626
-0.0630492
-0.0640227
-0.0648929
-0.0656686
-0.0663591
-0.0669734
-0.067519
-0.0680034
-0.068433
-0.0688138
-0.0691512
-0.0694498
-0.069714
-0.069947
-0.0701523
-0.0703328
-0.070491
-0.0706285
-0.0707474
-0.0708491
-0.0709345
-0.0710054
-0.0710625
-0.0711063
-0.0711374
-0.0711555
-0.000126972
-0.000104911
-6.42922e-05
-5.41629e-06
7.15717e-05
0.00016639
0.000278705
0.00040822
0.000554691
0.000717845
0.00089727
0.00109236
0.00130239
0.00152653
0.00176411
0.00201437
0.00227644
0.00254937
0.00283207
0.00312334
0.00342181
0.00372595
0.00403408
0.00434443
0.00465503
0.00496366
0.00526771
0.00556419
0.00584972
0.00612061
0.00637278
0.0066014
0.00680137
0.0069671
0.00709249
0.00717095
0.00719532
0.00715801
0.00705091
0.0068652
0.00659117
0.00621798
0.00573319
0.00512232
0.00436824
0.00345089
0.00234839
0.00103769
-0.000503541
-0.00229424
-0.00434641
-0.00666169
-0.00923052
-0.0120321
-0.0150439
-0.0182086
-0.0214922
-0.0248472
-0.0282268
-0.0315879
-0.0348947
-0.0380839
-0.0411533
-0.044073
-0.0468233
-0.0493918
-0.0517717
-0.0539611
-0.0559619
-0.0577795
-0.059421
-0.0608968
-0.0622174
-0.063395
-0.0644408
-0.0653675
-0.0661862
-0.0669083
-0.067544
-0.0681025
-0.0685934
-0.0690241
-0.0694018
-0.0697331
-0.0700235
-0.0702785
-0.0705011
-0.0706962
-0.0708664
-0.0710149
-0.0711442
-0.0712561
-0.0713522
-0.071434
-0.071503
-0.0715601
-0.0716059
-0.0716415
-0.0716673
-0.0716828
-0.000279683
-0.000255947
-0.000212222
-0.000148884
-6.60735e-05
3.59534e-05
0.000156924
0.000296628
0.000454882
0.000631421
0.000825813
0.00103747
0.00126576
0.00151009
0.00176979
0.0020442
0.00233254
0.00263391
0.00294735
0.00327173
0.00360575
0.00394799
0.00429694
0.00465103
0.00500849
0.00536719
0.00572459
0.00607777
0.00642347
0.00675806
0.00707743
0.0073767
0.00765056
0.00789318
0.00809816
0.00825864
0.00836727
0.00841617
0.00839698
0.00830073
0.00811768
0.00783676
0.00744487
0.00692619
0.00626139
0.00542662
0.00439401
0.00313251
0.0016105
-0.000200312
-0.00231973
-0.00475388
-0.00749321
-0.0105164
-0.0137781
-0.0172291
-0.0208162
-0.0244815
-0.0281677
-0.0318199
-0.0353815
-0.0388418
-0.0421375
-0.0452479
-0.0481553
-0.0508474
-0.0533208
-0.0555747
-0.0576139
-0.0594467
-0.0610843
-0.0625393
-0.063826
-0.0649586
-0.0659518
-0.0668201
-0.0675768
-0.0682345
-0.0688054
-0.0693001
-0.069728
-0.0700977
-0.0704175
-0.0706935
-0.0709318
-0.0711382
-0.071316
-0.0714696
-0.0716021
-0.0717164
-0.0718146
-0.0718991
-0.071971
-0.0720319
-0.072083
-0.0721256
-0.0721599
-0.0721869
-0.0722071
-0.07222
-0.000452309
-0.000426834
-0.00037991
-0.000312003
-0.00022323
-0.000113784
1.61491e-05
0.000166428
0.000336881
0.000527216
0.000737008
0.000965761
0.00121297
0.00147818
0.00176076
0.00206012
0.00237556
0.00270634
0.00305156
0.0034102
0.00378104
0.00416283
0.00455433
0.00495415
0.00536066
0.00577187
0.00618539
0.0065985
0.0070081
0.00741063
0.00780176
0.00817684
0.00853041
0.00885641
0.00914802
0.00939805
0.0095989
0.0097425
0.0098204
0.0098237
0.00974292
0.00956736
0.00928406
0.00887672
0.00832422
0.00759904
0.00666597
0.00548372
0.00400763
0.00219528
1.4583e-05
-0.00254772
-0.00548369
-0.00876092
-0.0123249
-0.0161151
-0.0200625
-0.0240949
-0.0281424
-0.032141
-0.0360261
-0.0397635
-0.0433063
-0.0466254
-0.0497018
-0.0525228
-0.0550894
-0.0574029
-0.0594725
-0.0613099
-0.0629304
-0.0643504
-0.0655884
-0.0666615
-0.0675879
-0.068384
-0.0690658
-0.0696481
-0.0701434
-0.0705641
-0.0709206
-0.0712219
-0.0714767
-0.0716914
-0.0718731
-0.0720263
-0.0721553
-0.0722643
-0.0723561
-0.0724339
-0.0724993
-0.0725544
-0.0726007
-0.0726396
-0.0726722
-0.0726994
-0.0727217
-0.0727395
-0.0727536
-0.0727636
-0.000646113
-0.000618841
-0.000568667
-0.000496126
-0.000401269
-0.0002842
-0.000145026
1.61329e-05
0.000199079
0.00040351
0.000629068
0.000875384
0.00114209
0.00142878
0.00173493
0.00205993
0.00240324
0.00276424
0.00314215
0.00353601
0.00394479
0.0043675
0.0048031
0.00525041
0.00570796
0.00617392
0.00664621
0.00712236
0.00759947
0.00807406
0.00854197
0.0089979
0.00943711
0.00985333
0.010239
0.0105864
0.0108876
0.0111345
0.0113186
0.0114313
0.0114637
0.0114065
0.0112481
0.0109728
0.0105591
0.00997744
0.00918346
0.00812292
0.00673281
0.00494893
0.00271986
2.16091e-05
-0.00314319
-0.00672114
-0.0106488
-0.0148465
-0.0192249
-0.023693
-0.0281647
-0.0325584
-0.0368176
-0.0408784
-0.044698
-0.0482456
-0.0515016
-0.0544539
-0.0571106
-0.0594761
-0.0615633
-0.0633902
-0.0649768
-0.0663445
-0.0675152
-0.0685115
-0.0693542
-0.0700627
-0.0706551
-0.0711482
-0.0715563
-0.0718926
-0.072168
-0.0723928
-0.0725757
-0.0727232
-0.0728427
-0.0729385
-0.0730151
-0.0730762
-0.0731249
-0.0731634
-0.0731943
-0.0732186
-0.073238
-0.0732537
-0.0732667
-0.0732778
-0.0732876
-0.0732962
-0.0733041
-0.073311
-0.000862414
-0.000833311
-0.000779867
-0.000702633
-0.000601565
-0.000476682
-0.000328055
-0.000155823
3.97965e-05
0.000258553
0.000500199
0.000764498
0.00105116
0.00135982
0.00169003
0.00204138
0.00241321
0.00280515
0.00321647
0.00364637
0.00409408
0.00455886
0.00503991
0.0055362
0.00604648
0.00656925
0.00710275
0.00764488
0.00819294
0.00874359
0.00929286
0.00983607
0.0103662
0.0108799
0.0113673
0.0118203
0.0122304
0.0125892
0.0128881
0.013119
0.0132746
0.0133476
0.0133295
0.0132076
0.0129605
0.0125655
0.0119629
0.0110836
0.00983915
0.00813168
0.00587782
0.00303667
-0.000396878
-0.00433726
-0.00870873
-0.0134015
-0.0182991
-0.0232881
-0.028263
-0.033127
-0.0378061
-0.0422337
-0.0463613
-0.0501567
-0.053602
-0.0566833
-0.0594234
-0.0618272
-0.0639151
-0.0657113
-0.0672421
-0.068535
-0.0696171
-0.0705155
-0.0712543
-0.0718571
-0.0723441
-0.0727333
-0.073041
-0.0732813
-0.0734662
-0.0736062
-0.0737097
-0.0737842
-0.073836
-0.0738701
-0.0738906
-0.0739008
-0.0739037
-0.0739011
-0.0738953
-0.0738874
-0.0738788
-0.0738704
-0.0738633
-0.0738578
-0.0738544
-0.0738534
-0.0738549
-0.0738587
-0.00110262
-0.00107169
-0.00101496
-0.000932963
-0.000825554
-0.000692709
-0.000534511
-0.000351116
-0.000142705
9.05725e-05
0.000348592
0.000631199
0.000938163
0.00126918
0.0016239
0.00200196
0.00240303
0.00282649
0.00327179
0.00373843
0.0042259
0.0047337
0.00526122
0.00580767
0.00637211
0.00695344
0.00755034
0.00816106
0.00878323
0.0094138
0.010049
0.0106843
0.0113139
0.0119315
0.0125287
0.0130959
0.0136237
0.0141028
0.0145245
0.0148814
0.0151677
0.0153799
0.0155147
0.0155671
0.0155248
0.0153581
0.0150124
0.0143978
0.0133886
0.0118344
0.00959623
0.00660009
0.00285813
-0.00153469
-0.00645595
-0.0117561
-0.0172841
-0.0228972
-0.0284649
-0.0338798
-0.0390452
-0.0438887
-0.0483573
-0.052418
-0.0560551
-0.0592647
-0.0620731
-0.0644951
-0.0665591
-0.0682976
-0.0697453
-0.070936
-0.0719031
-0.0726785
-0.0732911
-0.0737675
-0.0741306
-0.0744
-0.0745937
-0.0747261
-0.07481
-0.0748562
-0.0748732
-0.0748683
-0.0748476
-0.0748156
-0.0747765
-0.074733
-0.0746875
-0.074642
-0.0745981
-0.0745569
-0.0745194
-0.0744864
-0.0744584
-0.074436
-0.0744192
-0.0744081
-0.0744031
-0.0744036
-0.00136825
-0.00133551
-0.00127548
-0.00118864
-0.00107479
-0.000933911
-0.000766107
-0.000571507
-0.000350197
-0.000102217
0.000172393
0.000473532
0.000801042
0.00115473
0.00153437
0.00193966
0.00237026
0.00282564
0.00330539
0.00380932
0.00433717
0.00488864
0.00546334
0.0060608
0.00668049
0.00732178
0.0079838
0.00866526
0.0093643
0.0100784
0.0108043
0.0115377
0.0122728
0.0130024
0.013718
0.0144087
0.0150631
0.0156714
0.0162237
0.0167123
0.0171334
0.0174877
0.0177809
0.0180205
0.0182083
0.0183248
0.0183214
0.0180887
0.0174512
0.0161755
0.0140261
0.0108671
0.00673897
0.001775
-0.00383547
-0.00988811
-0.0161867
-0.0225521
-0.0288281
-0.0348829
-0.0406079
-0.0459201
-0.0507632
-0.0551032
-0.0589287
-0.062255
-0.0651099
-0.0675217
-0.0695295
-0.0711763
-0.0725055
-0.0735601
-0.074381
-0.0750047
-0.0754651
-0.0757919
-0.0760105
-0.076143
-0.0762074
-0.0762194
-0.0761918
-0.0761355
-0.076059
-0.075969
-0.0758708
-0.0757689
-0.0756666
-0.0755669
-0.0754712
-0.0753815
-0.0752983
-0.075223
-0.0751558
-0.0750975
-0.0750483
-0.0750086
-0.0749781
-0.0749568
-0.0749452
-0.0749424
-0.00166089
-0.00162638
-0.00156303
-0.00147129
-0.00135096
-0.00120205
-0.00102464
-0.000818791
-0.000584469
-0.000321641
-3.03053e-05