/*--------------------------------*- C++ -*----------------------------------*\
| =========                 |                                                 |
| \\      /  F ield         | OpenFOAM: The Open Source CFD Toolbox           |
|  \\    /   O peration     | Version:  2312                                  |
|   \\  /    A nd           | Website:  www.openfoam.com                      |
|    \\/     M anipulation  |                                                 |
\*---------------------------------------------------------------------------*/
FoamFile
{
    version     2.0;
    format      ascii;
    arch        "LSB;label=32;scalar=64";
    class       surfaceScalarField;
    location    "0.2";
    object      phi;
}
// * * * * * * * * * * * * * * * * * * * * * * * * * * * * * * * * * * * * * //

dimensions      [0 3 -1 0 0 0 0];

oriented        oriented;

internalField   nonuniform List<scalar> 
19800
(
-1.6842e-12
-1.48748e-12
-4.94523e-12
3.2612e-12
-7.1971e-12
2.25215e-12
-7.75664e-12
5.59543e-13
-7.45577e-12
-3.01321e-13
-6.89457e-12
-5.6211e-13
-6.39946e-12
-4.96331e-13
-6.08328e-12
-3.17443e-13
-5.97826e-12
-1.06058e-13
-6.06955e-12
9.06879e-14
-6.35735e-12
2.87791e-13
-6.83843e-12
4.81639e-13
-7.50191e-12
6.64473e-13
-8.35741e-12
8.567e-13
-9.40523e-12
1.04896e-12
-1.06476e-11
1.2432e-12
-1.20967e-11
1.44962e-12
-1.37635e-11
1.66685e-12
-1.56471e-11
1.88331e-12
-1.77581e-11
2.11058e-12
-2.01003e-11
2.34171e-12
-2.2674e-11
2.57333e-12
-2.54747e-11
2.80045e-12
-2.84937e-11
3.01904e-12
-3.17156e-11
3.222e-12
-3.51202e-11
3.40469e-12
-3.86809e-11
3.56068e-12
-4.2365e-11
3.68398e-12
-4.61338e-11
3.76854e-12
-4.99438e-11
3.80967e-12
-5.3747e-11
3.8028e-12
-5.74917e-11
3.74425e-12
-6.11238e-11
3.63169e-12
-6.45884e-11
3.46429e-12
-6.78293e-11
3.24065e-12
-7.07917e-11
2.96213e-12
-7.34227e-11
2.63086e-12
-7.5675e-11
2.2522e-12
-7.7504e-11
1.8287e-12
-7.88766e-11
1.3721e-12
-7.97606e-11
8.83084e-13
-8.01348e-11
3.72899e-13
-7.99972e-11
-1.39379e-13
-7.93495e-11
-6.49628e-13
-7.82106e-11
-1.14073e-12
-7.65874e-11
-1.62464e-12
-7.45369e-11
-2.0516e-12
-7.20967e-11
-2.44082e-12
-6.93311e-11
-2.76599e-12
-6.63055e-11
-3.02575e-12
-6.30831e-11
-3.2223e-12
-5.9743e-11
-3.33997e-12
-5.63545e-11
-3.38815e-12
-5.29884e-11
-3.36557e-12
-4.9709e-11
-3.27859e-12
-4.65803e-11
-3.12765e-12
-4.36515e-11
-2.92748e-12
-4.09639e-11
-2.68611e-12
-3.85492e-11
-2.41318e-12
-3.64283e-11
-2.11971e-12
-3.4615e-11
-1.81273e-12
-3.31086e-11
-1.50587e-12
-3.19018e-11
-1.20673e-12
-3.09827e-11
-9.20137e-13
-3.03253e-11
-6.58095e-13
-2.99022e-11
-4.24392e-13
-2.96817e-11
-2.21924e-13
-2.96277e-11
-5.34136e-14
-2.97043e-11
7.68816e-14
-2.98731e-11
1.70795e-13
-3.00976e-11
2.2666e-13
-3.03454e-11
2.4885e-13
-3.05828e-11
2.39035e-13
-3.07848e-11
2.01428e-13
-3.09208e-11
1.37595e-13
-3.0976e-11
5.3563e-14
-3.09284e-11
-4.79305e-14
-3.07634e-11
-1.627e-13
-3.04774e-11
-2.86433e-13
-3.00624e-11
-4.15282e-13
-2.95134e-11
-5.48516e-13
-2.88312e-11
-6.83596e-13
-2.80176e-11
-8.15113e-13
-2.70806e-11
-9.39403e-13
-2.6025e-11
-1.0561e-12
-2.48569e-11
-1.16942e-12
-2.35811e-11
-1.28162e-12
-2.2185e-11
-1.39601e-12
-2.06688e-11
-1.5169e-12
-1.90283e-11
-1.6425e-12
-1.72624e-11
-1.7655e-12
-1.53832e-11
-1.87831e-12
-1.34085e-11
-1.97473e-12
-1.13624e-11
-2.0469e-12
-9.27212e-12
-2.09045e-12
-7.16144e-12
-2.11002e-12
-5.04717e-12
-2.11485e-12
-2.94263e-12
-2.10539e-12
-9.60931e-13
-1.98111e-12
-9.62641e-13
3.25052e-12
-4.73781e-12
3.3031e-12
3.20883e-12
1.44868e-12
4.10623e-12
-2.67803e-13
2.27496e-12
-1.29549e-12
7.24695e-13
-1.93538e-12
7.5852e-14
-2.39139e-12
-4.21209e-14
-2.83704e-12
1.26916e-13
-3.34988e-12
4.06246e-13
-4.01904e-12
7.60149e-13
-4.86777e-12
1.13757e-12
-5.92763e-12
1.54307e-12
-7.22968e-12
1.96828e-12
-8.79654e-12
2.42514e-12
-1.06427e-11
2.89627e-12
-1.27812e-11
3.38218e-12
-1.52367e-11
3.90499e-12
-1.80004e-11
4.42994e-12
-2.11032e-11
4.98533e-12
-2.4544e-11
5.55057e-12
-2.83248e-11
6.12181e-12
-3.24439e-11
6.692e-12
-3.68929e-11
7.24939e-12
-4.16588e-11
7.78501e-12
-4.67208e-11
8.28424e-12
-5.20512e-11
8.73517e-12
-5.7614e-11
9.12334e-12
-6.33642e-11
9.43373e-12
-6.9254e-11
9.65772e-12
-7.52253e-11
9.78005e-12
-8.12126e-11
9.78919e-12
-8.71461e-11
9.67679e-12
-9.29497e-11
9.43443e-12
-9.85424e-11
9.05637e-12
-1.03848e-10
8.5461e-12
-1.08782e-10
7.89584e-12
-1.13267e-10
7.11541e-12
-1.1723e-10
6.21484e-12
-1.206e-10
5.19788e-12
-1.23321e-10
4.09223e-12
-1.25341e-10
2.89989e-12
-1.26628e-10
1.65733e-12
-1.27159e-10
3.88373e-13
-1.26933e-10
-8.7815e-13
-1.25957e-10
-2.11857e-12
-1.2428e-10
-3.30354e-12
-1.21939e-10
-4.39343e-12
-1.19007e-10
-5.37412e-12
-1.15557e-10
-6.21621e-12
-1.11682e-10
-6.90101e-12
-1.07484e-10
-7.42004e-12
-1.03058e-10
-7.76557e-12
-9.85123e-11
-7.9325e-12
-9.39499e-11
-7.92644e-12
-8.94692e-11
-7.75718e-12
-8.51547e-11
-7.4396e-12
-8.10764e-11
-7.00321e-12
-7.72963e-11
-6.46417e-12
-7.38579e-11
-5.84996e-12
-7.07986e-11
-5.17778e-12
-6.81299e-11
-4.48148e-12
-6.58538e-11
-3.78225e-12
-6.39628e-11
-3.09778e-12
-6.24407e-11
-2.44379e-12
-6.1248e-11
-1.85221e-12
-6.0352e-11
-1.32075e-12
-5.97036e-11
-8.71137e-13
-5.92571e-11
-4.97568e-13
-5.89659e-11
-2.1216e-13
-5.87787e-11
-1.41417e-14
-5.86521e-11
1.03156e-13
-5.85384e-11
1.3593e-13
-5.83912e-11
9.38681e-14
-5.818e-11
-1.12495e-14
-5.78682e-11
-1.72731e-13
-5.7424e-11
-3.89676e-13
-5.68274e-11
-6.46055e-13
-5.6058e-11
-9.30257e-13
-5.51069e-11
-1.23549e-12
-5.39713e-11
-1.55326e-12
-5.26448e-11
-1.87746e-12
-5.11235e-11
-2.20675e-12
-4.94088e-11
-2.53059e-12
-4.75082e-11
-2.8436e-12
-4.54269e-11
-3.14297e-12
-4.31648e-11
-3.43194e-12
-4.07307e-11
-3.71842e-12
-3.81259e-11
-4.00137e-12
-3.53621e-11
-4.2813e-12
-3.24497e-11
-4.55613e-12
-2.94029e-11
-4.81248e-12
-2.62343e-11
-5.04616e-12
-2.29591e-11
-5.24988e-12
-1.95937e-11
-5.41266e-12
-1.6154e-11
-5.53077e-12
-1.26561e-11
-5.60863e-12
-9.1123e-12
-5.65939e-12
-5.53142e-12
-5.68728e-12
-2.03265e-12
-5.48191e-12
-2.99543e-12
2.19899e-12
-6.93652e-12
4.28595e-12
1.12142e-12
4.41601e-12
3.9753e-12
3.57349e-12
3.1163e-12
2.51918e-12
1.77781e-12
1.5787e-12
1.01539e-12
7.47312e-13
7.88691e-13
-3.38783e-14
9.07907e-13
-8.59378e-13
1.23186e-12
-1.77868e-12
1.67983e-12
-2.87202e-12
2.23148e-12
-4.15864e-12
2.83037e-12
-5.6885e-12
3.4988e-12
-7.47365e-12
4.2108e-12
-9.55145e-12
4.97428e-12
-1.19527e-11
5.78329e-12
-1.46577e-11
6.60943e-12
-1.77154e-11
7.48675e-12
-2.11276e-11
8.39658e-12
-2.48885e-11
9.31053e-12
-2.90033e-11
1.02359e-11
-3.34674e-11
1.11558e-11
-3.82715e-11
1.20535e-11
-4.33994e-11
1.29132e-11
-4.883e-11
1.37152e-11
-5.45341e-11
1.44396e-11
-6.04764e-11
1.50655e-11
-6.66146e-11
1.55713e-11
-7.28948e-11
1.59368e-11
-7.92608e-11
1.61445e-11
-8.56443e-11
1.6171e-11
-9.19746e-11
1.60057e-11
-9.81716e-11
1.56305e-11
-1.04148e-10
1.5033e-11
-1.09823e-10
1.42214e-11
-1.15111e-10
1.31842e-11
-1.19916e-10
1.19217e-11
-1.2417e-10
1.04689e-11
-1.27782e-10
8.80898e-12
-1.30697e-10
7.0063e-12
-1.32859e-10
5.06025e-12
-1.34219e-10
3.01541e-12
-1.34758e-10
9.25281e-13
-1.34468e-10
-1.16969e-12
-1.33367e-10
-3.22082e-12
-1.31492e-10
-5.17946e-12
-1.28895e-10
-6.99097e-12
-1.25645e-10
-8.62499e-12
-1.21833e-10
-1.00296e-11
-1.17558e-10
-1.11767e-11
-1.12931e-10
-1.20469e-11
-1.08066e-10
-1.26302e-11
-1.0308e-10
-1.29173e-11
-9.80849e-11
-1.29199e-11
-9.3184e-11
-1.26561e-11
-8.84691e-11
-1.21527e-11
-8.40438e-11
-1.14269e-11
-7.99482e-11
-1.05588e-11
-7.62416e-11
-9.55616e-12
-7.2944e-11
-8.47436e-12
-7.00943e-11
-7.33014e-12
-6.76731e-11
-6.20284e-12
-6.5674e-11
-5.0957e-12
-6.40692e-11
-4.04852e-12
-6.28409e-11
-3.0816e-12
-6.19213e-11
-2.24044e-12
-6.12751e-11
-1.51824e-12
-6.08458e-11
-9.26196e-13
-6.05851e-11
-4.71e-13
-6.04376e-11
-1.60307e-13
-6.03578e-11
2.53684e-14
-6.02904e-11
7.03177e-14
-6.01985e-11
3.53106e-15
-6.00389e-11
-1.7017e-13
-5.97741e-11
-4.38018e-13
-5.93807e-11
-7.81961e-13
-5.88263e-11
-1.19846e-12
-5.80976e-11
-1.65947e-12
-5.71759e-11
-2.15581e-12
-5.60542e-11
-2.67441e-12
-5.47275e-11
-3.20551e-12
-5.31873e-11
-3.74739e-12
-5.1435e-11
-4.28331e-12
-4.94722e-11
-4.8059e-12
-4.73025e-11
-5.31247e-12
-4.49338e-11
-5.80269e-12
-4.23752e-11
-6.27761e-12
-3.96414e-11
-6.73377e-12
-3.67508e-11
-7.17433e-12
-3.37179e-11
-7.59029e-12
-3.05546e-11
-7.97512e-12
-2.72738e-11
-8.32593e-12
-2.38921e-11
-8.63316e-12
-2.0419e-11
-8.88795e-12
-1.68611e-11
-9.08771e-12
-1.32325e-11
-9.23674e-12
-9.54465e-12
-9.34842e-12
-5.81575e-12
-9.41536e-12
-2.18208e-12
-9.11547e-12
-5.1786e-12
4.99093e-13
-7.43571e-12
2.45134e-12
-8.3211e-13
3.54418e-12
2.88119e-12
3.66453e-12
2.99499e-12
3.27807e-12
2.16388e-12
2.68683e-12
1.60677e-12
2.01414e-12
1.46182e-12
1.27502e-12
1.64742e-12
4.52074e-13
2.05495e-12
-5.04033e-13
2.6358e-12
-1.60754e-12
3.3347e-12
-2.92759e-12
4.15012e-12
-4.47542e-12
5.04636e-12
-6.29474e-12
6.02985e-12
-8.40967e-12
7.08883e-12
-1.08298e-11
8.2029e-12
-1.36071e-11
9.38588e-12
-1.67207e-11
1.05994e-11
-2.01759e-11
1.18508e-11
-2.40033e-11
1.3137e-11
-2.81973e-11
1.44293e-11
-3.27528e-11
1.57111e-11
-3.7661e-11
1.69619e-11
-4.29066e-11
1.81593e-11
-4.84687e-11
1.92778e-11
-5.43196e-11
2.02905e-11
-6.04242e-11
2.11695e-11
-6.67395e-11
2.18851e-11
-7.32137e-11
2.24089e-11
-7.97859e-11
2.27143e-11
-8.63906e-11
2.27736e-11
-9.29532e-11
2.25668e-11
-9.9389e-11
2.20659e-11
-1.05608e-10
2.12525e-11
-1.11523e-10
2.01377e-11
-1.17038e-10
1.87011e-11
-1.22064e-10
1.69488e-11
-1.26513e-10
1.49183e-11
-1.30296e-10
1.25915e-11
-1.33345e-10
1.00553e-11
-1.35593e-10
7.3075e-12
-1.36998e-10
4.41928e-12
-1.37532e-10
1.45785e-12
-1.37183e-10
-1.51911e-12
-1.35969e-10
-4.43526e-12
-1.33927e-10
-7.22275e-12
-1.3111e-10
-9.80996e-12
-1.27602e-10
-1.21347e-11
-1.23495e-10
-1.41377e-11
-1.18902e-10
-1.57704e-11
-1.1394e-10
-1.70081e-11
-1.08741e-10
-1.78285e-11
-1.03428e-10
-1.82288e-11
-9.81243e-11
-1.82221e-11
-9.29441e-11
-1.7835e-11
-8.79905e-11
-1.71055e-11
-8.33357e-11
-1.60812e-11
-7.90711e-11
-1.4823e-11
-7.52374e-11
-1.33896e-11
-7.18701e-11
-1.18405e-11
-6.89701e-11
-1.0228e-11
-6.65536e-11
-8.61778e-12
-6.45918e-11
-7.05631e-12
-6.30543e-11
-5.58569e-12
-6.1901e-11
-4.23613e-12
-6.10843e-11
-3.05817e-12
-6.05546e-11
-2.04832e-12
-6.02479e-11
-1.23289e-12
-6.01115e-11
-6.05873e-13
-6.00914e-11
-1.77736e-13
-6.01289e-11
6.38196e-14
-6.01799e-11
1.24223e-13
-6.01985e-11
2.18478e-14
-6.0132e-11
-2.35747e-13
-5.99589e-11
-6.11038e-13
-5.96408e-11
-1.10141e-12
-5.91568e-11
-1.68027e-12
-5.84884e-11
-2.32654e-12
-5.76167e-11
-3.02788e-12
-5.65307e-11
-3.76073e-12
-5.52245e-11
-4.51108e-12
-5.36922e-11
-5.27713e-12
-5.19397e-11
-6.03695e-12
-4.99691e-11
-6.78056e-12
-4.77793e-11
-7.49999e-12
-4.53899e-11
-8.1926e-12
-4.28117e-11
-8.85813e-12
-4.0052e-11
-9.49384e-12
-3.71331e-11
-1.00954e-11
-3.40653e-11
-1.06586e-11
-3.08653e-11
-1.11765e-11
-2.75508e-11
-1.16434e-11
-2.41318e-11
-1.2053e-11
-2.06219e-11
-1.23981e-11
-1.7029e-11
-1.26815e-11
-1.33605e-11
-1.2905e-11
-9.63282e-12
-1.30748e-11
-5.86672e-12
-1.3181e-11
-2.21157e-12
-1.27705e-11
-7.39075e-12
-3.28739e-13
-7.10762e-12
9.11633e-13
-2.07433e-12
2.19941e-12
1.59216e-12
2.85706e-12
2.33696e-12
2.97595e-12
2.04549e-12
2.7836e-12
1.80008e-12
2.39712e-12
1.84913e-12
1.87534e-12
2.16944e-12
1.2061e-12
2.72371e-12
3.75606e-13
3.4653e-12
-6.54989e-13
4.36415e-12
-1.88944e-12
5.38358e-12
-3.38432e-12
6.54054e-12
-5.14758e-12
7.79263e-12
-7.20951e-12
9.15035e-12
-9.60033e-12
1.05932e-11
-1.23167e-11
1.21016e-11
-1.53995e-11
1.36813e-11
-1.88621e-11
1.53125e-11
-2.26986e-11
1.69727e-11
-2.69172e-11
1.86475e-11
-3.15166e-11
2.03104e-11
-3.64901e-11
2.19356e-11
-4.18249e-11
2.34944e-11
-4.75018e-11
2.49547e-11
-5.34943e-11
2.62824e-11
-5.97675e-11
2.74412e-11
-6.62789e-11
2.83942e-11
-7.29765e-11
2.91037e-11
-7.97973e-11
2.95323e-11
-8.66758e-11
2.96501e-11
-9.35263e-11
2.94164e-11
-1.00265e-10
2.88052e-11
-1.06799e-10
2.77872e-11
-1.13026e-10
2.63659e-11
-1.18849e-10
2.45263e-11
-1.2417e-10
2.22712e-11
-1.28884e-10
1.96324e-11
-1.32904e-10
1.66129e-11
-1.36137e-10
1.32881e-11
-1.38522e-10
9.69274e-12
-1.40005e-10
5.90136e-12
-1.40546e-10
1.99863e-12
-1.40141e-10
-1.92481e-12
-1.38794e-10
-5.78307e-12
-1.36549e-10
-9.4686e-12
-1.33468e-10
-1.28925e-11
-1.29637e-10
-1.59669e-11
-1.25162e-10
-1.86138e-11
-1.20168e-10
-2.07643e-11
-1.14792e-10
-2.23836e-11
-1.09173e-10
-2.34467e-11
-1.03453e-10
-2.39484e-11
-9.77676e-11
-2.39066e-11
-9.22439e-11
-2.33582e-11
-8.6993e-11
-2.23565e-11
-8.21071e-11
-2.09674e-11
-7.76538e-11
-1.92763e-11
-7.3696e-11
-1.73471e-11
-7.02658e-11
-1.52698e-11
-6.73622e-11
-1.31298e-11
-6.49852e-11
-1.09932e-11
-6.31096e-11
-8.93129e-12
-6.16976e-11
-6.99796e-12
-6.06893e-11
-5.24489e-12
-6.00462e-11
-3.7025e-12
-5.96983e-11
-2.39571e-12
-5.95829e-11
-1.34718e-12
-5.96378e-11
-5.5061e-13
-5.98009e-11
-1.12708e-14
-6.0014e-11
2.76617e-13
-6.02259e-11
3.38192e-13
-6.03862e-11
1.80667e-13
-6.04598e-11
-1.6393e-13
-6.03965e-11
-6.74838e-13
-6.01724e-11
-1.32566e-12
-5.97585e-11
-2.0954e-12
-5.9148e-11
-2.93685e-12
-5.83145e-11
-3.86034e-12
-5.72521e-11
-4.82482e-12
-5.59537e-11
-5.81137e-12
-5.44207e-11
-6.80872e-12
-5.26578e-11
-7.7995e-12
-5.06711e-11
-8.77222e-12
-4.84601e-11
-9.7109e-12
-4.60436e-11
-1.06098e-11
-4.34291e-11
-1.14739e-11
-4.06324e-11
-1.2292e-11
-3.76706e-11
-1.30604e-11
-3.45573e-11
-1.37742e-11
-3.13074e-11
-1.44258e-11
-2.79402e-11
-1.50113e-11
-2.44704e-11
-1.55249e-11
-2.09044e-11
-1.59639e-11
-1.7253e-11
-1.63309e-11
-1.35289e-11
-1.66279e-11
-9.74527e-12
-1.6858e-11
-5.92626e-12
-1.70001e-11
-2.23151e-12
-1.64661e-11
-9.62143e-12
-5.8754e-13
-6.52122e-12
2.52101e-13
-2.91584e-12
1.43864e-12
4.04823e-13
2.28828e-12
1.48765e-12
2.73594e-12
1.59889e-12
2.86499e-12
1.67213e-12
2.75869e-12
1.95587e-12
2.45697e-12
2.47063e-12
1.97254e-12
3.20682e-12
1.2954e-12
4.14079e-12
4.0836e-13
5.24975e-12
-7.22925e-13
6.51394e-12
-2.10321e-12
7.92045e-12
-3.78005e-12
9.46943e-12
-5.74854e-12
1.11189e-11
-8.0612e-12
1.29058e-11
-1.073e-11
1.47701e-11
-1.37793e-11
1.673e-11
-1.7203e-11
1.87356e-11
-2.10262e-11
2.07952e-11
-2.52592e-11
2.288e-11
-2.98981e-11
2.4949e-11
-3.49399e-11
2.69773e-11
-4.03745e-11
2.89288e-11
-4.61856e-11
3.07652e-11
-5.23487e-11
3.2444e-11
-5.88303e-11
3.39206e-11
-6.55873e-11
3.51485e-11
-7.25665e-11
3.608e-11
-7.97049e-11
3.66684e-11
-8.69275e-11
3.68712e-11
-9.41508e-11
3.66392e-11
-1.01284e-10
3.59393e-11
-1.08228e-10
3.47315e-11
-1.14871e-10
3.30101e-11
-1.21103e-10
3.076e-11
-1.26813e-10
2.79832e-11
-1.31887e-10
2.47069e-11
-1.36222e-10
2.09495e-11
-1.39717e-10
1.67831e-11
-1.42293e-10
1.22696e-11
-1.43887e-10
7.49509e-12
-1.44451e-10
2.56138e-12
-1.43975e-10
-2.40148e-12
-1.42456e-10
-7.30279e-12
-1.39951e-10
-1.19738e-11
-1.36526e-10
-1.63188e-11
-1.32267e-10
-2.02269e-11
-1.27307e-10
-2.35734e-11
-1.21787e-10
-2.62846e-11
-1.15859e-10
-2.83114e-11
-1.09685e-10
-2.9621e-11
-1.03425e-10
-3.02072e-11
-9.72373e-11
-3.00947e-11
-9.12628e-11
-2.93329e-11
-8.56261e-11
-2.79938e-11
-8.04293e-11
-2.61653e-11
-7.57555e-11
-2.39511e-11
-7.16464e-11
-2.14567e-11
-6.81435e-11
-1.87722e-11
-6.5246e-11
-1.60266e-11
-6.29371e-11
-1.33006e-11
-6.11873e-11
-1.068e-11
-5.99454e-11
-8.24025e-12
-5.91505e-11
-6.03885e-12
-5.87428e-11
-4.11042e-12
-5.86457e-11
-2.49278e-12
-5.87846e-11
-1.20644e-12
-5.90919e-11
-2.43791e-13
-5.9502e-11
4.00558e-13
-5.99443e-11
7.18091e-13
-6.03638e-11
7.57327e-13
-6.07134e-11
5.27937e-13
-6.0952e-11
7.24552e-14
-6.10346e-11
-5.95815e-13
-6.09154e-11
-1.44411e-12
-6.06051e-11
-2.40706e-12
-6.00528e-11
-3.49226e-12
-5.92647e-11
-4.64794e-12
-5.82275e-11
-5.86164e-12
-5.69406e-11
-7.09885e-12
-5.54065e-11
-8.34338e-12
-5.36286e-11
-9.57692e-12
-5.16133e-11
-1.07879e-11
-4.93661e-11
-1.19581e-11
-4.69052e-11
-1.30736e-11
-4.42406e-11
-1.41391e-11
-4.13915e-11
-1.51422e-11
-3.83705e-11
-1.60806e-11
-3.51967e-11
-1.69495e-11
-3.18847e-11
-1.77393e-11
-2.84504e-11
-1.84449e-11
-2.49093e-11
-1.90653e-11
-2.1272e-11
-1.96008e-11
-1.75492e-11
-2.00527e-11
-1.37538e-11
-2.04238e-11
-9.89878e-12
-2.07129e-11
-6.01034e-12
-2.08872e-11
-2.25658e-12
-2.02214e-11
-1.18784e-11
-5.22992e-13
-5.99951e-12
1.43348e-13
-3.58341e-12
1.2183e-12
-6.70184e-13
2.14623e-12
5.60568e-13
2.78552e-12
9.60697e-13
3.14819e-12
1.31002e-12
3.27524e-12
1.82836e-12
3.18743e-12
2.55705e-12
2.89943e-12
3.49299e-12
2.39868e-12
4.63994e-12
1.67208e-12
5.97544e-12
6.93287e-13
7.49261e-12
-5.64132e-13
9.17833e-12
-2.10992e-12
1.10159e-11
-3.99423e-12
1.30038e-11
-6.20135e-12
1.51133e-11
-8.78889e-12
1.73577e-11
-1.1763e-11
1.97038e-11
-1.51551e-11
2.21273e-11
-1.89655e-11
2.4605e-11
-2.32e-11
2.71139e-11
-2.78795e-11
2.96278e-11
-3.29988e-11
3.20959e-11
-3.85504e-11
3.44795e-11
-4.45206e-11
3.6734e-11
-5.08871e-11
3.88088e-11
-5.76183e-11
4.06496e-11
-6.46719e-11
4.21998e-11
-7.19948e-11
4.34008e-11
-7.95217e-11
4.41938e-11
-8.71732e-11
4.45216e-11
-9.48636e-11
4.4329e-11
-1.02491e-10
4.35665e-11
-1.09952e-10
4.21927e-11
-1.17121e-10
4.01805e-11
-1.23874e-10
3.75148e-11
-1.30086e-10
3.41962e-11
-1.35623e-10
3.02452e-11
-1.4037e-10
2.56973e-11
-1.44207e-10
2.06203e-11
-1.47035e-10
1.5097e-11
-1.48779e-10
9.23918e-12
-1.49385e-10
3.16628e-12
-1.48819e-10
-2.9677e-12
-1.47105e-10
-9.01707e-12
-1.44267e-10
-1.48117e-11
-1.40387e-10
-2.01985e-11
-1.35601e-10
-2.50131e-11
-1.30009e-10
-2.91653e-11
-1.23811e-10
-3.24834e-11
-1.1717e-10
-3.49516e-11
-1.10279e-10
-3.6512e-11
-1.03328e-10
-3.71588e-11
-9.64954e-11
-3.69272e-11
-8.99466e-11
-3.58827e-11
-8.38223e-11
-3.41196e-11
-7.82365e-11
-3.17529e-11
-7.32771e-11
-2.89125e-11
-6.90015e-11
-2.57335e-11
-6.54189e-11
-2.23541e-11
-6.25415e-11
-1.8903e-11
-6.03376e-11
-1.55032e-11
-5.87564e-11
-1.22587e-11
-5.77448e-11
-9.25177e-12
-5.72352e-11
-6.54779e-12
-5.71271e-11
-4.21778e-12
-5.73497e-11
-2.27097e-12
-5.78202e-11
-7.35555e-13
-5.84522e-11
3.88234e-13
-5.91659e-11
1.11418e-12
-5.99013e-11
1.45279e-12
-6.05839e-11
1.43861e-12
-6.11696e-11
1.11038e-12
-6.16018e-11
5.03049e-13
-6.18506e-11
-3.50113e-13
-6.18843e-11
-1.41036e-12
-6.16723e-11
-2.61897e-12
-6.12107e-11
-3.95547e-12
-6.04679e-11
-5.39093e-12
-5.94632e-11
-6.86566e-12
-5.8186e-11
-8.37228e-12
-5.6643e-11
-9.88608e-12
-5.4843e-11
-1.13811e-11
-5.27895e-11
-1.28406e-11
-5.04922e-11
-1.42516e-11
-4.7971e-11
-1.55975e-11
-4.52412e-11
-1.68692e-11
-4.23219e-11
-1.80635e-11
-3.92275e-11
-1.91741e-11
-3.59763e-11
-2.01988e-11
-3.25844e-11
-2.11293e-11
-2.9068e-11
-2.19593e-11
-2.54422e-11
-2.26899e-11
-2.17206e-11
-2.33226e-11
-1.79151e-11
-2.38589e-11
-1.40375e-11
-2.43028e-11
-1.01005e-11
-2.46508e-11
-6.12872e-12
-2.48585e-11
-2.29613e-12
-2.40537e-11
-1.41751e-11
-3.46667e-13
-5.65387e-12
3.08068e-13
-4.2383e-12
1.33792e-12
-1.69932e-12
2.32717e-12
-4.27621e-13
3.11481e-12
1.73708e-13
3.66676e-12
7.57773e-13
4.00387e-12
1.48996e-12
4.12617e-12
2.43294e-12
4.03744e-12
3.58014e-12
3.72879e-12
4.9478e-12
3.18194e-12
6.52247e-12
2.3728e-12
8.3027e-12
1.27981e-12
1.02726e-11
-1.27629e-13
1.24246e-11
-1.86736e-12
1.47445e-11
-3.97146e-12
1.72179e-11
-6.46845e-12
1.98548e-11
-9.36091e-12
2.2596e-11
-1.26829e-11
2.54487e-11
-1.64652e-11
2.83866e-11
-2.07038e-11
3.13516e-11
-2.54254e-11
3.43484e-11
-3.063e-11
3.72994e-11
-3.63131e-11
4.01613e-11
-4.2465e-11
4.28845e-11
-4.90665e-11
4.54088e-11
-5.60889e-11
4.76706e-11
-6.34916e-11
4.96013e-11
-7.12219e-11
5.11299e-11
-7.92129e-11
5.21837e-11
-8.7383e-11
5.26906e-11
-9.56432e-11
5.25883e-11
-1.03877e-10
5.17995e-11
-1.11968e-10
5.02843e-11
-1.19786e-10
4.7999e-11
-1.27189e-10
4.49186e-11
-1.34027e-10
4.10361e-11
-1.40154e-10
3.63725e-11
-1.45423e-10
3.09672e-11
-1.497e-10
2.4896e-11
-1.52861e-10
1.8258e-11
-1.54807e-10
1.11842e-11
-1.55471e-10
3.82959e-12
-1.54814e-10
-3.62405e-12
-1.52846e-10
-1.09854e-11
-1.49603e-10
-1.80542e-11
-1.4518e-10
-2.46211e-11
-1.39696e-10
-3.04968e-11
-1.33334e-10
-3.55264e-11
-1.2627e-10
-3.95479e-11
-1.18727e-10
-4.24943e-11
-1.10934e-10
-4.43047e-11
-1.03112e-10
-4.4981e-11
-9.5474e-11
-4.45661e-11
-8.82114e-11
-4.3147e-11
-8.14873e-11
-4.08462e-11
-7.54293e-11
-3.7813e-11
-7.01305e-11
-3.42127e-11
-6.56518e-11
-3.0213e-11
-6.19958e-11
-2.60088e-11
-5.91666e-11
-2.17298e-11
-5.71075e-11
-1.75614e-11
-5.57657e-11
-1.35986e-11
-5.50652e-11
-9.95162e-12
-5.49002e-11
-6.71344e-12
-5.51866e-11
-3.93132e-12
-5.5816e-11
-1.64141e-12
-5.66937e-11
1.41193e-13
-5.77233e-11
1.41871e-12
-5.88175e-11
2.20823e-12
-5.99016e-11
2.53666e-12
-6.09038e-11
2.43932e-12
-6.17646e-11
1.97027e-12
-6.24378e-11
1.17493e-12
-6.28867e-11
9.83136e-14
-6.30801e-11
-1.21603e-12
-6.29957e-11
-2.70466e-12
-6.2621e-11
-4.32969e-12
-6.19497e-11
-6.06059e-12
-6.09736e-11
-7.84568e-12
-5.97034e-11
-9.6437e-12
-5.81413e-11
-1.14448e-11
-5.63038e-11
-1.32198e-11
-5.42007e-11
-1.49467e-11
-5.18435e-11
-1.66089e-11
-4.92503e-11
-1.81919e-11
-4.6439e-11
-1.96766e-11
-4.34288e-11
-2.10712e-11
-4.02428e-11
-2.23605e-11
-3.68976e-11
-2.35448e-11
-3.34097e-11
-2.46176e-11
-2.9796e-11
-2.55735e-11
-2.60727e-11
-2.64143e-11
-2.22535e-11
-2.71417e-11
-1.83533e-11
-2.77603e-11
-1.43835e-11
-2.8274e-11
-1.03548e-11
-2.86798e-11
-6.28911e-12
-2.89246e-11
-2.36075e-12
-2.79798e-11
-1.65334e-11
-1.36233e-13
-5.51803e-12
5.97174e-13
-4.97067e-12
1.66824e-12
-2.76909e-12
2.74348e-12
-1.50191e-12
3.6642e-12
-7.46985e-13
4.40122e-12
1.97457e-14
4.93855e-12
9.51013e-13
5.28113e-12
2.08887e-12
5.40261e-12
3.45797e-12
5.3005e-12
5.05029e-12
4.95609e-12
6.86813e-12
4.33915e-12
8.92131e-12
3.42954e-12
1.11838e-11
2.19596e-12
1.36594e-11
6.10927e-13
1.63303e-11
-1.36185e-12
1.9191e-11
-3.71519e-12
2.22081e-11
-6.51322e-12
2.53937e-11
-9.7675e-12
2.87024e-11
-1.35026e-11
3.21209e-11
-1.77581e-11
3.5606e-11
-2.24976e-11
3.90867e-11
-2.77843e-11
4.25851e-11
-3.36102e-11
4.59862e-11
-3.99633e-11
4.9237e-11
-4.68294e-11
5.22746e-11
-5.41836e-11
5.50245e-11
-6.19885e-11
5.74059e-11
-7.01929e-11
5.93334e-11
-7.87289e-11
6.07185e-11
-8.75138e-11
6.1474e-11
-9.64426e-11
6.15158e-11
-1.05405e-10
6.07614e-11
-1.14264e-10
5.91425e-11
-1.2287e-10
5.66067e-11
-1.31065e-10
5.31143e-11
-1.38679e-10
4.86508e-11
-1.45539e-10
4.32314e-11
-1.51466e-10
3.68938e-11
-1.56299e-10
2.9728e-11
-1.59888e-10
2.18463e-11
-1.62108e-10
1.34036e-11
-1.62868e-10
4.58942e-12
-1.62116e-10
-4.37572e-12
-1.59851e-10
-1.32501e-11
-1.56111e-10
-2.17931e-11
-1.51004e-10
-2.97284e-11
-1.44678e-10
-3.6822e-11
-1.37335e-10
-4.28682e-11
-1.29198e-10
-4.76842e-11
-1.20536e-10
-5.11562e-11
-1.11618e-10
-5.32225e-11
-1.02716e-10
-5.38837e-11
-9.40837e-11
-5.31997e-11
-8.59469e-11
-5.12853e-11
-7.84959e-11
-4.82994e-11
-7.18756e-11
-4.44349e-11
-6.61848e-11
-3.99035e-11
-6.14852e-11
-3.49126e-11
-5.77715e-11
-2.97217e-11
-5.50172e-11
-2.4482e-11
-5.31736e-11
-1.94046e-11
-5.21484e-11
-1.46237e-11
-5.18375e-11
-1.02619e-11
-5.21268e-11
-6.42413e-12
-5.28991e-11
-3.15994e-12
-5.40324e-11
-5.06642e-13
-5.54123e-11
1.52062e-12
-5.69266e-11
2.93452e-12
-5.84818e-11
3.76382e-12
-5.9976e-11
4.03217e-12
-6.13653e-11
3.82578e-12
-6.25477e-11
3.15461e-12
-6.35032e-11
2.13005e-12
-6.41805e-11
7.74964e-13
-6.45552e-11
-8.39415e-13
-6.46106e-11
-2.65262e-12
-6.4334e-11
-4.61052e-12
-6.37266e-11
-6.66668e-12
-6.27743e-11
-8.79765e-12
-6.14984e-11
-1.09234e-11
-5.99145e-11
-1.30324e-11
-5.80273e-11
-1.51065e-11
-5.58568e-11
-1.71149e-11
-5.34233e-11
-1.90428e-11
-5.07428e-11
-2.08748e-11
-4.78355e-11
-2.25854e-11
-4.47195e-11
-2.41855e-11
-4.1423e-11
-2.56574e-11
-3.79657e-11
-2.70026e-11
-3.43655e-11
-2.82181e-11
-3.06389e-11
-2.93009e-11
-2.6803e-11
-3.02509e-11
-2.28731e-11
-3.10715e-11
-1.8865e-11
-3.17689e-11
-1.47917e-11
-3.23483e-11
-1.06607e-11
-3.2809e-11
-6.49011e-12
-3.30937e-11
-2.45377e-12
-3.20147e-11
-1.89849e-11
5.71632e-14
-5.57477e-12
9.45582e-13
-5.85713e-12
2.12837e-12
-3.95037e-12
3.32784e-12
-2.70078e-12
4.40903e-12
-1.82868e-12
5.33072e-12
-9.03234e-13
6.08691e-12
1.93456e-13
6.64396e-12
1.53112e-12
6.99666e-12
3.1056e-12
7.12471e-12
4.92349e-12
6.99551e-12
6.99903e-12
6.59748e-12
9.32093e-12
5.89334e-12
1.18891e-11
4.86441e-12
1.46889e-11
3.47094e-12
1.77238e-11
1.68466e-12
2.0977e-11
-5.38422e-13
2.44308e-11
-3.20992e-12
2.80647e-11
-6.37538e-12
3.18672e-11
-1.00458e-11
3.57905e-11
-1.42615e-11
3.98208e-11
-1.90674e-11
4.38917e-11
-2.44174e-11
4.79347e-11
-3.03837e-11
5.19526e-11
-3.69488e-11
5.58027e-11
-4.4108e-11
5.94345e-11
-5.18326e-11
6.27496e-11
-6.00925e-11
6.56657e-11
-6.88375e-11
6.80776e-11
-7.80016e-11
6.98812e-11
-8.74983e-11
7.09692e-11
-9.72201e-11
7.12365e-11
-1.07042e-10
7.05832e-11
-1.16813e-10
6.89136e-11
-1.26369e-10
6.61628e-11
-1.35528e-10
6.22727e-11
-1.44088e-10
5.72102e-11
-1.51841e-10
5.09837e-11
-1.58595e-10
4.36471e-11
-1.64132e-10
3.52641e-11
-1.6827e-10
2.59835e-11
-1.70853e-10
1.5986e-11
-1.71756e-10
5.49284e-12
-1.70906e-10
-5.22585e-12
-1.68296e-10
-1.58603e-11
-1.63969e-10
-2.6119e-11
-1.58028e-10
-3.56687e-11
-1.50666e-10
-4.41834e-11
-1.42108e-10
-5.14251e-11
-1.32645e-10
-5.71463e-11
-1.22595e-10
-6.12062e-11
-1.1229e-10
-6.35277e-11
-1.02059e-10
-6.41148e-11
-9.2211e-11
-6.3049e-11
-8.30153e-11
-6.04816e-11
-7.46939e-11
-5.66217e-11
-6.74127e-11
-5.17174e-11
-6.12761e-11
-4.604e-11
-5.63405e-11
-3.98479e-11
-5.25887e-11
-3.34741e-11
-4.99853e-11
-2.70854e-11
-4.84322e-11
-2.09572e-11
-4.78242e-11
-1.5232e-11
-4.80176e-11
-1.00685e-11
-4.8874e-11
-5.56609e-12
-5.025e-11
-1.78404e-12
-5.19994e-11
1.24459e-12
-5.39996e-11
3.52105e-12
-5.60882e-11
5.02416e-12
-5.81823e-11
5.85751e-12
-6.01816e-11
6.03368e-12
-6.19934e-11
5.63353e-12
-6.35639e-11
4.72557e-12
-6.48355e-11
3.40266e-12
-6.57756e-11
1.71306e-12
-6.63554e-11
-2.59809e-13
-6.65599e-11
-2.4479e-12
-6.63831e-11
-4.78734e-12
-6.58258e-11
-7.22643e-12
-6.49031e-11
-9.72192e-12
-6.36121e-11
-1.22131e-11
-6.19776e-11
-1.46682e-11
-6.00255e-11
-1.70592e-11
-5.77715e-11
-1.93674e-11
-5.52426e-11
-2.15731e-11
-5.24534e-11
-2.36612e-11
-4.94302e-11
-2.56075e-11
-4.61917e-11
-2.74208e-11
-4.27691e-11
-2.90806e-11
-3.91838e-11
-3.05904e-11
-3.54539e-11
-3.1948e-11
-3.15994e-11
-3.31573e-11
-2.76354e-11
-3.42146e-11
-2.35795e-11
-3.51271e-11
-1.9449e-11
-3.59e-11
-1.52572e-11
-3.65404e-11
-1.10136e-11
-3.70518e-11
-6.72963e-12
-3.73752e-11
-2.57278e-12
-3.61701e-11
-2.1558e-11
2.54575e-13
-5.82821e-12
1.33072e-12
-6.93099e-12
2.67015e-12
-5.28851e-12
4.03817e-12
-4.06865e-12
5.31211e-12
-3.10344e-12
6.45025e-12
-2.04256e-12
7.41843e-12
-7.75528e-13
8.22028e-12
7.29341e-13
8.82298e-12
2.50386e-12
9.19268e-12
4.55522e-12
9.31283e-12
6.88021e-12
9.15985e-12
9.4747e-12
8.69895e-12
1.23501e-11
7.89612e-12
1.54913e-11
6.72141e-12
1.88979e-11
5.13878e-12
2.25591e-11
3.10824e-12
2.64608e-11
5.87685e-13
3.05847e-11
-2.44909e-12
3.49034e-11
-6.04552e-12
3.93863e-11
-1.02239e-11
4.39987e-11
-1.50217e-11
4.86895e-11
-2.04862e-11
5.33997e-11
-2.65702e-11
5.80378e-11
-3.33571e-11
6.2591e-11
-4.0818e-11
6.68967e-11
-4.89502e-11
7.08823e-11
-5.77143e-11
7.44294e-11
-6.70692e-11
7.74315e-11
-7.69485e-11
7.97592e-11
-8.7264e-11
8.12837e-11
-9.79036e-11
8.18755e-11
-1.0873e-10
8.1409e-11
-1.19584e-10
7.9768e-11
-1.30275e-10
7.6853e-11
-1.40591e-10
7.25878e-11
-1.50302e-10
6.69208e-11
-1.59167e-10
5.98472e-11
-1.66927e-10
5.14057e-11
-1.73343e-10
4.16798e-11
-1.78194e-10
3.08333e-11
-1.81259e-10
1.90507e-11
-1.82376e-10
6.61011e-12
-1.81452e-10
-6.15043e-12
-1.78443e-10
-1.8869e-11
-1.73406e-10
-3.11555e-11
-1.66463e-10
-4.26108e-11
-1.57819e-10
-5.28262e-11
-1.47776e-10
-6.14678e-11
-1.36675e-10
-6.82463e-11
-1.24912e-10
-7.29699e-11
-1.12897e-10
-7.55426e-11
-1.01036e-10
-7.59756e-11
-8.97054e-11
-7.43798e-11
-7.92307e-11
-7.09567e-11
-6.98741e-11
-6.59784e-11
-6.18255e-11
-5.97672e-11
-5.51961e-11
-5.26706e-11
-5.00176e-11
-4.50269e-11
-4.6282e-11
-3.72101e-11
-4.39028e-11
-2.94656e-11
-4.27539e-11
-2.21062e-11
-4.26994e-11
-1.52851e-11
-4.35359e-11
-9.23113e-12
-4.51038e-11
-3.99656e-12
-4.72236e-11
3.35774e-13
-4.9757e-11
3.77927e-12
-5.24428e-11
6.20747e-12
-5.52499e-11
7.83086e-12
-5.79684e-11
8.57268e-12
-6.05483e-11
8.61272e-12
-6.28704e-11
7.95402e-12
-6.48707e-11
6.72541e-12
-6.65042e-11
5.03853e-12
-6.77284e-11
2.93933e-12
-6.85271e-11
5.3962e-13
-6.88879e-11
-2.08845e-12
-6.88082e-11
-4.86346e-12
-6.8301e-11
-7.73159e-12
-6.73858e-11
-1.06383e-11
-6.60673e-11
-1.35307e-11
-6.43705e-11
-1.63634e-11
-6.23276e-11
-1.91015e-11
-5.9962e-11
-2.17315e-11
-5.73109e-11
-2.42284e-11
-5.43909e-11
-2.65815e-11
-5.12279e-11
-2.87724e-11
-4.7848e-11
-3.08009e-11
-4.428e-11
-3.26489e-11
-4.05486e-11
-3.43238e-11
-3.66714e-11
-3.58256e-11
-3.26719e-11
-3.71593e-11
-2.85654e-11
-3.83229e-11
-2.4368e-11
-3.93236e-11
-2.01008e-11
-4.01676e-11
-1.57756e-11
-4.08634e-11
-1.14059e-11
-4.14216e-11
-7.0004e-12
-4.17796e-11
-2.71134e-12
-4.04573e-11
-2.42686e-11
4.49611e-13
-6.27634e-12
1.73994e-12
-8.21942e-12
3.29033e-12
-6.83818e-12
4.85878e-12
-5.63744e-12
6.35113e-12
-4.59677e-12
7.72528e-12
-3.41764e-12
8.95244e-12
-2.00303e-12
1.00034e-11
-3.21245e-13
1.08639e-11
1.64436e-12
1.15115e-11
3.90842e-12
1.19069e-11
6.48521e-12
1.20331e-11
9.34814e-12
1.18388e-11
1.25436e-11
1.13007e-11
1.60283e-11
1.03806e-11
1.98171e-11
9.03715e-12
2.39018e-11
7.22753e-12
2.827e-11
4.90641e-12
3.29055e-11
2.02694e-12
3.77825e-11
-1.4517e-12
4.28648e-11
-5.55781e-12
4.8105e-11
-1.03384e-11
5.34709e-11
-1.58372e-11
5.88998e-11
-2.2101e-11
6.43034e-11
-2.90917e-11
6.95832e-11
-3.68783e-11
7.46841e-11
-4.54377e-11
7.94416e-11
-5.47547e-11
8.37457e-11
-6.47853e-11
8.74612e-11
-7.54679e-11
9.04411e-11
-8.6715e-11
9.25303e-11
-9.841e-11
9.35704e-11
-1.10407e-10
9.34055e-11
-1.22526e-10
9.18869e-11
-1.34558e-10
8.88837e-11
-1.4626e-10
8.42893e-11
-1.57364e-10
7.80235e-11
-1.67581e-10
7.00631e-11
-1.76604e-10
6.04276e-11
-1.8413e-10
4.92052e-11
-1.89877e-10
3.65793e-11
-1.9358e-10
2.27527e-11
-1.95017e-10
8.04707e-12
-1.94047e-10
-7.12029e-12
-1.90606e-10
-2.23101e-11
-1.84726e-10
-3.70352e-11
-1.76565e-10
-5.07716e-11
-1.66369e-10
-6.30225e-11
-1.54492e-10
-7.33445e-11
-1.41367e-10
-8.13705e-11
-1.27486e-10
-8.6851e-11
-1.13361e-10
-8.96666e-11
-9.94993e-11
-8.98373e-11
-8.63636e-11
-8.75157e-11
-7.43507e-11
-8.29703e-11
-6.37685e-11
-7.65612e-11
-5.48349e-11
-6.87015e-11
-4.7663e-11
-5.98435e-11
-4.22802e-11
-5.04111e-11