/*--------------------------------*- C++ -*----------------------------------*\
| =========                 |                                                 |
| \\      /  F ield         | OpenFOAM: The Open Source CFD Toolbox           |
|  \\    /   O peration     | Version:  2312                                  |
|   \\  /    A nd           | Website:  www.openfoam.com                      |
|    \\/     M anipulation  |                                                 |
\*---------------------------------------------------------------------------*/
FoamFile
{
    version     2.0;
    format      ascii;
    arch        "LSB;label=32;scalar=64";
    class       volVectorField;
    location    "0.2";
    object      U;
}
// * * * * * * * * * * * * * * * * * * * * * * * * * * * * * * * * * * * * * //

dimensions      [0 1 -1 0 0 0 0];

internalField   nonuniform List<vector> 
10000
(
(4.46555e-07 4.91593e-07 0)
(-1.34593e-06 1.27077e-06 0)
(-2.57541e-06 5.4087e-07 0)
(-3.21735e-06 3.31127e-08 0)
(-3.10852e-06 -1.18412e-07 0)
(-2.89891e-06 -1.5073e-07 0)
(-2.66352e-06 -1.21118e-07 0)
(-2.4901e-06 -8.01908e-08 0)
(-2.39811e-06 -4.05781e-08 0)
(-2.39509e-06 -7.5137e-09 0)
(-2.47352e-06 2.58783e-08 0)
(-2.62475e-06 5.64749e-08 0)
(-2.85314e-06 8.14362e-08 0)
(-3.1583e-06 1.07665e-07 0)
(-3.53718e-06 1.33129e-07 0)
(-3.99429e-06 1.56899e-07 0)
(-4.53355e-06 1.82598e-07 0)
(-5.1559e-06 2.10398e-07 0)
(-5.8661e-06 2.3694e-07 0)
(-6.66652e-06 2.65645e-07 0)
(-7.55736e-06 2.94818e-07 0)
(-8.54061e-06 3.23938e-07 0)
(-9.61589e-06 3.52263e-07 0)
(-1.07805e-05 3.79744e-07 0)
(-1.20295e-05 4.05002e-07 0)
(-1.3356e-05 4.27428e-07 0)
(-1.47503e-05 4.4611e-07 0)
(-1.62008e-05 4.60262e-07 0)
(-1.76932e-05 4.68646e-07 0)
(-1.92109e-05 4.70799e-07 0)
(-2.07356e-05 4.66072e-07 0)
(-2.22474e-05 4.53834e-07 0)
(-2.37254e-05 4.33668e-07 0)
(-2.51474e-05 4.05591e-07 0)
(-2.6491e-05 3.69474e-07 0)
(-2.77345e-05 3.25747e-07 0)
(-2.88563e-05 2.74972e-07 0)
(-2.98358e-05 2.17889e-07 0)
(-3.06554e-05 1.54846e-07 0)
(-3.12979e-05 8.83136e-08 0)
(-3.17502e-05 1.72589e-08 0)
(-3.20032e-05 -5.66787e-08 0)
(-3.20513e-05 -1.3106e-07 0)
(-3.18947e-05 -2.03671e-07 0)
(-3.15373e-05 -2.72404e-07 0)
(-3.0984e-05 -3.33126e-07 0)
(-3.02479e-05 -3.8905e-07 0)
(-2.9348e-05 -4.36467e-07 0)
(-2.83045e-05 -4.76178e-07 0)
(-2.71437e-05 -5.0636e-07 0)
(-2.58912e-05 -5.26254e-07 0)
(-2.45756e-05 -5.36489e-07 0)
(-2.32269e-05 -5.35803e-07 0)
(-2.1873e-05 -5.24415e-07 0)
(-2.05413e-05 -5.03287e-07 0)
(-1.92573e-05 -4.74146e-07 0)
(-1.80437e-05 -4.37696e-07 0)
(-1.69189e-05 -3.95375e-07 0)
(-1.58972e-05 -3.48588e-07 0)
(-1.49892e-05 -2.98784e-07 0)
(-1.42021e-05 -2.47575e-07 0)
(-1.35379e-05 -1.9636e-07 0)
(-1.29955e-05 -1.46578e-07 0)
(-1.25711e-05 -9.91189e-08 0)
(-1.22567e-05 -5.5157e-08 0)
(-1.20415e-05 -1.56034e-08 0)
(-1.1914e-05 1.93548e-08 0)
(-1.18605e-05 4.8943e-08 0)
(-1.18661e-05 7.34256e-08 0)
(-1.19162e-05 9.23325e-08 0)
(-1.1996e-05 1.05183e-07 0)
(-1.20917e-05 1.1256e-07 0)
(-1.21898e-05 1.14836e-07 0)
(-1.22786e-05 1.12545e-07 0)
(-1.23471e-05 1.05926e-07 0)
(-1.2386e-05 9.56612e-08 0)
(-1.2388e-05 8.2716e-08 0)
(-1.23459e-05 6.74717e-08 0)
(-1.22556e-05 5.05089e-08 0)
(-1.2115e-05 3.2061e-08 0)
(-1.19219e-05 1.21601e-08 0)
(-1.16753e-05 -8.83732e-09 0)
(-1.13757e-05 -2.96813e-08 0)
(-1.10252e-05 -4.91958e-08 0)
(-1.06267e-05 -6.66844e-08 0)
(-1.0182e-05 -8.22696e-08 0)
(-9.69293e-06 -9.58928e-08 0)
(-9.15756e-06 -1.08407e-07 0)
(-8.57385e-06 -1.22274e-07 0)
(-7.94205e-06 -1.39232e-07 0)
(-7.26138e-06 -1.58575e-07 0)
(-6.53243e-06 -1.7869e-07 0)
(-5.76134e-06 -1.97964e-07 0)
(-4.95794e-06 -2.13016e-07 0)
(-4.13095e-06 -2.21018e-07 0)
(-3.28908e-06 -2.22703e-07 0)
(-2.44124e-06 -2.20844e-07 0)
(-1.59424e-06 -2.16937e-07 0)
(-7.7286e-07 -1.9798e-07 0)
(-8.88702e-08 -8.56358e-08 0)
(1.24557e-06 -1.23517e-06 0)
(1.63743e-06 1.62235e-06 0)
(1.11425e-06 1.33313e-06 0)
(1.00586e-07 4.46906e-07 0)
(-3.54103e-07 -9.96902e-08 0)
(-6.81715e-07 -2.66072e-07 0)
(-8.78835e-07 -2.46373e-07 0)
(-1.04438e-06 -1.53087e-07 0)
(-1.22757e-06 -3.59791e-08 0)
(-1.46042e-06 8.88537e-08 0)
(-1.75828e-06 2.16565e-07 0)
(-2.13933e-06 3.44837e-07 0)
(-2.61241e-06 4.71085e-07 0)
(-3.18487e-06 6.04052e-07 0)
(-3.8662e-06 7.39919e-07 0)
(-4.6612e-06 8.78035e-07 0)
(-5.57662e-06 1.02566e-06 0)
(-6.62168e-06 1.17762e-06 0)
(-7.7987e-06 1.33436e-06 0)
(-9.10789e-06 1.49577e-06 0)
(-1.05527e-05 1.65962e-06 0)
(-1.21334e-05 1.82379e-06 0)
(-1.38478e-05 1.98489e-06 0)
(-1.56919e-05 2.14011e-06 0)
(-1.76586e-05 2.28493e-06 0)
(-1.97384e-05 2.41586e-06 0)
(-2.1918e-05 2.52855e-06 0)
(-2.41831e-05 2.61892e-06 0)
(-2.65148e-05 2.68346e-06 0)
(-2.889e-05 2.71846e-06 0)
(-3.12848e-05 2.72081e-06 0)
(-3.36724e-05 2.68798e-06 0)
(-3.60236e-05 2.61784e-06 0)
(-3.83071e-05 2.50941e-06 0)
(-4.04913e-05 2.36245e-06 0)
(-4.25441e-05 2.17761e-06 0)
(-4.44328e-05 1.95607e-06 0)
(-4.61272e-05 1.70084e-06 0)
(-4.75984e-05 1.41438e-06 0)
(-4.88212e-05 1.10291e-06 0)
(-4.97747e-05 7.68794e-07 0)
(-5.04386e-05 4.20223e-07 0)
(-5.08017e-05 6.4602e-08 0)
(-5.08628e-05 -2.90153e-07 0)
(-5.06223e-05 -6.34312e-07 0)
(-5.00904e-05 -9.59103e-07 0)
(-4.92842e-05 -1.26007e-06 0)
(-4.82258e-05 -1.52896e-06 0)
(-4.6945e-05 -1.76017e-06 0)
(-4.54755e-05 -1.94833e-06 0)
(-4.38556e-05 -2.08986e-06 0)
(-4.21249e-05 -2.18283e-06 0)
(-4.03251e-05 -2.22663e-06 0)
(-3.84983e-05 -2.22285e-06 0)
(-3.66848e-05 -2.1744e-06 0)
(-3.49212e-05 -2.08526e-06 0)
(-3.3239e-05 -1.95974e-06 0)
(-3.16646e-05 -1.80651e-06 0)
(-3.02188e-05 -1.63209e-06 0)
(-2.89177e-05 -1.44333e-06 0)
(-2.77715e-05 -1.24588e-06 0)
(-2.67829e-05 -1.04769e-06 0)
(-2.59501e-05 -8.54841e-07 0)
(-2.52686e-05 -6.71708e-07 0)
(-2.47273e-05 -5.02338e-07 0)
(-2.43103e-05 -3.52661e-07 0)
(-2.40033e-05 -2.23735e-07 0)
(-2.37876e-05 -1.17941e-07 0)
(-2.36418e-05 -3.59317e-08 0)
(-2.35479e-05 2.10695e-08 0)
(-2.34872e-05 5.31977e-08 0)
(-2.34409e-05 6.20774e-08 0)
(-2.33906e-05 4.99921e-08 0)
(-2.33207e-05 1.82288e-08 0)
(-2.32173e-05 -2.96772e-08 0)
(-2.30673e-05 -9.12841e-08 0)
(-2.28607e-05 -1.63762e-07 0)
(-2.25883e-05 -2.44309e-07 0)
(-2.22447e-05 -3.30473e-07 0)
(-2.18282e-05 -4.20238e-07 0)
(-2.13364e-05 -5.11967e-07 0)
(-2.07669e-05 -6.04235e-07 0)
(-2.01193e-05 -6.93993e-07 0)
(-1.93956e-05 -7.79249e-07 0)
(-1.85983e-05 -8.59482e-07 0)
(-1.77282e-05 -9.36455e-07 0)
(-1.67867e-05 -1.01332e-06 0)
(-1.57762e-05 -1.09169e-06 0)
(-1.47009e-05 -1.17262e-06 0)
(-1.3566e-05 -1.25539e-06 0)
(-1.23752e-05 -1.33612e-06 0)
(-1.11327e-05 -1.40987e-06 0)
(-9.84503e-06 -1.47266e-06 0)
(-8.51881e-06 -1.52008e-06 0)
(-7.15728e-06 -1.55035e-06 0)
(-5.76611e-06 -1.56632e-06 0)
(-4.35403e-06 -1.57379e-06 0)
(-2.92767e-06 -1.57388e-06 0)
(-1.52869e-06 -1.50088e-06 0)
(-2.09741e-07 -7.79834e-07 0)
(5.01791e-07 -2.44592e-06 0)
(1.34908e-06 1.02103e-06 0)
(2.04918e-06 1.92152e-06 0)
(1.59401e-06 1.33088e-06 0)
(1.22286e-06 6.64106e-07 0)
(7.97451e-07 3.18356e-07 0)
(4.46403e-07 2.10623e-07 0)
(1.35305e-07 2.43823e-07 0)
(-1.72848e-07 3.50034e-07 0)
(-5.15521e-07 5.02091e-07 0)
(-9.14589e-07 6.83132e-07 0)
(-1.38682e-06 8.81369e-07 0)
(-1.94578e-06 1.09736e-06 0)
(-2.60538e-06 1.32757e-06 0)
(-3.3804e-06 1.57156e-06 0)
(-4.27156e-06 1.82788e-06 0)
(-5.29166e-06 2.09563e-06 0)
(-6.44963e-06 2.37408e-06 0)
(-7.74485e-06 2.66476e-06 0)
(-9.18039e-06 2.95852e-06 0)
(-1.07562e-05 3.25587e-06 0)
(-1.24725e-05 3.55252e-06 0)
(-1.4327e-05 3.84311e-06 0)
(-1.63145e-05 4.12206e-06 0)
(-1.84275e-05 4.3826e-06 0)
(-2.06562e-05 4.61826e-06 0)
(-2.29873e-05 4.82163e-06 0)
(-2.54056e-05 4.98529e-06 0)
(-2.78923e-05 5.1036e-06 0)
(-3.04248e-05 5.16948e-06 0)
(-3.29781e-05 5.17693e-06 0)
(-3.55247e-05 5.12061e-06 0)
(-3.80345e-05 4.99639e-06 0)
(-4.0474e-05 4.80153e-06 0)
(-4.28095e-05 4.53486e-06 0)
(-4.50073e-05 4.19719e-06 0)
(-4.70314e-05 3.79043e-06 0)
(-4.88487e-05 3.31823e-06 0)
(-5.04272e-05 2.78648e-06 0)
(-5.1739e-05 2.20294e-06 0)
(-5.27594e-05 1.57948e-06 0)
(-5.34652e-05 9.28662e-07 0)
(-5.38454e-05 2.61518e-07 0)
(-5.38954e-05 -4.07114e-07 0)
(-5.36166e-05 -1.06004e-06 0)
(-5.30197e-05 -1.68347e-06 0)
(-5.21223e-05 -2.26084e-06 0)
(-5.09489e-05 -2.7785e-06 0)
(-4.95315e-05 -3.22359e-06 0)
(-4.79089e-05 -3.58683e-06 0)
(-4.61225e-05 -3.86153e-06 0)
(-4.42171e-05 -4.04299e-06 0)
(-4.22405e-05 -4.13221e-06 0)
(-4.02381e-05 -4.13225e-06 0)
(-3.82531e-05 -4.04875e-06 0)
(-3.63253e-05 -3.88953e-06 0)
(-3.44931e-05 -3.66432e-06 0)
(-3.27855e-05 -3.38361e-06 0)
(-3.12227e-05 -3.06188e-06 0)
(-2.98205e-05 -2.71327e-06 0)
(-2.85905e-05 -2.35069e-06 0)
(-2.75365e-05 -1.98518e-06 0)
(-2.66533e-05 -1.63004e-06 0)
(-2.59343e-05 -1.29504e-06 0)
(-2.53695e-05 -9.87045e-07 0)
(-2.49411e-05 -7.1302e-07 0)
(-2.46304e-05 -4.78784e-07 0)
(-2.44183e-05 -2.86464e-07 0)
(-2.42824e-05 -1.3807e-07 0)
(-2.42028e-05 -3.51275e-08 0)
(-2.41591e-05 2.36669e-08 0)
(-2.41312e-05 4.1616e-08 0)
(-2.41012e-05 2.15374e-08 0)
(-2.40521e-05 -3.40784e-08 0)
(-2.39687e-05 -1.18604e-07 0)
(-2.3839e-05 -2.28684e-07 0)
(-2.3652e-05 -3.60188e-07 0)
(-2.33974e-05 -5.08982e-07 0)
(-2.30689e-05 -6.71644e-07 0)
(-2.26624e-05 -8.43942e-07 0)
(-2.21743e-05 -1.02112e-06 0)
(-2.1601e-05 -1.19858e-06 0)
(-2.09407e-05 -1.37165e-06 0)
(-2.01949e-05 -1.53724e-06 0)
(-1.93654e-05 -1.69399e-06 0)
(-1.84548e-05 -1.8425e-06 0)
(-1.74667e-05 -1.98773e-06 0)
(-1.64056e-05 -2.13151e-06 0)
(-1.52792e-05 -2.27366e-06 0)
(-1.40957e-05 -2.41283e-06 0)
(-1.28596e-05 -2.54532e-06 0)
(-1.15741e-05 -2.66684e-06 0)
(-1.02438e-05 -2.7732e-06 0)
(-8.87284e-06 -2.85923e-06 0)
(-7.46342e-06 -2.92326e-06 0)
(-6.02132e-06 -2.96823e-06 0)
(-4.55497e-06 -2.99957e-06 0)
(-3.07054e-06 -3.01906e-06 0)
(-1.6214e-06 -2.919e-06 0)
(-2.2875e-07 -1.63266e-06 0)
(-1.08224e-08 -3.10318e-06 0)
(4.52832e-07 -8.17916e-08 0)
(1.45468e-06 1.35929e-06 0)
(1.48339e-06 1.2488e-06 0)
(1.44072e-06 8.09929e-07 0)
(1.20523e-06 5.32427e-07 0)
(9.41098e-07 4.52662e-07 0)
(6.58368e-07 5.10369e-07 0)
(3.5006e-07 6.56894e-07 0)
(2.93941e-09 8.61852e-07 0)
(-4.04858e-07 1.11295e-06 0)
(-8.88555e-07 1.39797e-06 0)
(-1.45862e-06 1.71184e-06 0)
(-2.13023e-06 2.04999e-06 0)
(-2.91536e-06 2.41284e-06 0)
(-3.82229e-06 2.79582e-06 0)
(-4.85849e-06 3.19615e-06 0)
(-6.03076e-06 3.61227e-06 0)
(-7.34873e-06 4.04305e-06 0)
(-8.81186e-06 4.4818e-06 0)
(-1.04167e-05 4.92406e-06 0)
(-1.21671e-05 5.36342e-06 0)
(-1.40605e-05 5.79277e-06 0)
(-1.60922e-05 6.20434e-06 0)
(-1.8255e-05 6.58881e-06 0)
(-2.05394e-05 6.93673e-06 0)
(-2.29327e-05 7.23809e-06 0)
(-2.5419e-05 7.48249e-06 0)
(-2.79797e-05 7.66032e-06 0)
(-3.05922e-05 7.76185e-06 0)
(-3.32315e-05 7.77809e-06 0)
(-3.58692e-05 7.70043e-06 0)
(-3.84736e-05 7.5231e-06 0)
(-4.10098e-05 7.24126e-06 0)
(-4.3442e-05 6.85175e-06 0)
(-4.57338e-05 6.35542e-06 0)
(-4.78481e-05 5.75465e-06 0)
(-4.97491e-05 5.05362e-06 0)
(-5.1402e-05 4.26216e-06 0)
(-5.27735e-05 3.39072e-06 0)
(-5.38367e-05 2.45757e-06 0)
(-5.45702e-05 1.47893e-06 0)
(-5.49595e-05 4.734e-07 0)
(-5.49969e-05 -5.36032e-07 0)
(-5.46834e-05 -1.52504e-06 0)
(-5.40302e-05 -2.46903e-06 0)
(-5.30551e-05 -3.34504e-06 0)
(-5.17853e-05 -4.13101e-06 0)
(-5.02566e-05 -4.80806e-06 0)
(-4.85108e-05 -5.36085e-06 0)
(-4.65933e-05 -5.77868e-06 0)
(-4.45537e-05 -6.05662e-06 0)
(-4.24443e-05 -6.19375e-06 0)
(-4.03145e-05 -6.19417e-06 0)
(-3.82118e-05 -6.06688e-06 0)
(-3.61794e-05 -5.82535e-06 0)
(-3.42534e-05 -5.48605e-06 0)
(-3.24664e-05 -5.06442e-06 0)
(-3.08442e-05 -4.58029e-06 0)
(-2.94025e-05 -4.05481e-06 0)
(-2.81488e-05 -3.51045e-06 0)
(-2.70862e-05 -2.96329e-06 0)
(-2.62115e-05 -2.43169e-06 0)
(-2.55134e-05 -1.93155e-06 0)
(-2.49773e-05 -1.47491e-06 0)
(-2.45857e-05 -1.06875e-06 0)
(-2.4319e-05 -7.2323e-07 0)
(-2.41539e-05 -4.41088e-07 0)
(-2.40677e-05 -2.24802e-07 0)
(-2.40387e-05 -7.59565e-08 0)
(-2.4044e-05 7.96045e-09 0)
(-2.40633e-05 3.10676e-08 0)
(-2.40785e-05 -2.32366e-09 0)
(-2.40703e-05 -8.63115e-08 0)
(-2.40236e-05 -2.15146e-07 0)
(-2.39274e-05 -3.81619e-07 0)
(-2.37704e-05 -5.78671e-07 0)
(-2.35428e-05 -8.0018e-07 0)
(-2.32374e-05 -1.04041e-06 0)
(-2.28487e-05 -1.29289e-06 0)
(-2.23723e-05 -1.55203e-06 0)
(-2.18044e-05 -1.81213e-06 0)
(-2.11443e-05 -2.06903e-06 0)
(-2.03943e-05 -2.31897e-06 0)
(-1.95571e-05 -2.56003e-06 0)
(-1.8638e-05 -2.7919e-06 0)
(-1.76421e-05 -3.0163e-06 0)
(-1.65723e-05 -3.23284e-06 0)
(-1.54366e-05 -3.44069e-06 0)
(-1.42425e-05 -3.63724e-06 0)
(-1.29946e-05 -3.81963e-06 0)
(-1.16965e-05 -3.98513e-06 0)
(-1.03513e-05 -4.13108e-06 0)
(-8.96303e-06 -4.25439e-06 0)
(-7.53648e-06 -4.35316e-06 0)
(-6.07842e-06 -4.42864e-06 0)
(-4.59633e-06 -4.4845e-06 0)
(-3.09653e-06 -4.51967e-06 0)
(-1.63705e-06 -4.37791e-06 0)
(-2.31536e-07 -2.51435e-06 0)
(-1.55851e-07 -2.97885e-06 0)
(-9.26676e-08 -6.13763e-07 0)
(7.86423e-07 9.05521e-07 0)
(1.04819e-06 1.11845e-06 0)
(1.22992e-06 9.07142e-07 0)
(1.18123e-06 7.3905e-07 0)
(1.05332e-06 7.0949e-07 0)
(8.65972e-07 7.98578e-07 0)
(6.26856e-07 9.84458e-07 0)
(3.28779e-07 1.24248e-06 0)
(-3.83364e-08 1.55666e-06 0)
(-4.88555e-07 1.92169e-06 0)
(-1.03094e-06 2.3293e-06 0)
(-1.67615e-06 2.77343e-06 0)
(-2.44045e-06 3.25375e-06 0)
(-3.32873e-06 3.76314e-06 0)
(-4.35123e-06 4.29876e-06 0)
(-5.51526e-06 4.85543e-06 0)
(-6.82496e-06 5.42999e-06 0)
(-8.2861e-06 6.0177e-06 0)
(-9.89761e-06 6.60997e-06 0)
(-1.16617e-05 7.19782e-06 0)
(-1.35767e-05 7.77241e-06 0)
(-1.56391e-05 8.32334e-06 0)
(-1.78427e-05 8.83891e-06 0)
(-2.01783e-05 9.30675e-06 0)
(-2.26337e-05 9.71394e-06 0)
(-2.51933e-05 1.0047e-05 0)
(-2.78381e-05 1.02925e-05 0)
(-3.05453e-05 1.04373e-05 0)
(-3.32893e-05 1.0469e-05 0)
(-3.60398e-05 1.03767e-05 0)
(-3.87631e-05 1.01522e-05 0)
(-4.14233e-05 9.78758e-06 0)
(-4.39814e-05 9.2778e-06 0)
(-4.63978e-05 8.62184e-06 0)
(-4.86332e-05 7.82202e-06 0)
(-5.06467e-05 6.88464e-06 0)
(-5.23999e-05 5.822e-06 0)
(-5.38561e-05 4.6489e-06 0)
(-5.49845e-05 3.38565e-06 0)
(-5.57615e-05 2.05619e-06 0)
(-5.61691e-05 6.88262e-07 0)
(-5.61967e-05 -6.86552e-07 0)
(-5.58441e-05 -2.03624e-06 0)
(-5.51234e-05 -3.32498e-06 0)
(-5.40549e-05 -4.52187e-06 0)
(-5.26672e-05 -5.59706e-06 0)
(-5.09994e-05 -6.52278e-06 0)
(-4.90988e-05 -7.27776e-06 0)
(-4.70175e-05 -7.84727e-06 0)
(-4.48105e-05 -8.22396e-06 0)
(-4.25348e-05 -8.40577e-06 0)
(-4.02464e-05 -8.39859e-06 0)
(-3.79981e-05 -8.21494e-06 0)
(-3.58375e-05 -7.87282e-06 0)
(-3.38052e-05 -7.39513e-06 0)
(-3.19338e-05 -6.80937e-06 0)
(-3.02494e-05 -6.14266e-06 0)
(-2.87704e-05 -5.4219e-06 0)
(-2.75036e-05 -4.67566e-06 0)
(-2.64483e-05 -3.93073e-06 0)
(-2.55993e-05 -3.2088e-06 0)
(-2.49435e-05 -2.53039e-06 0)
(-2.44621e-05 -1.91256e-06 0)
(-2.4135e-05 -1.36802e-06 0)
(-2.39395e-05 -9.06796e-07 0)
(-2.38487e-05 -5.33244e-07 0)
(-2.38391e-05 -2.49923e-07 0)
(-2.38861e-05 -5.66816e-08 0)
(-2.39637e-05 4.95227e-08 0)
(-2.40505e-05 7.38334e-08 0)
(-2.41269e-05 2.34691e-08 0)
(-2.41747e-05 -9.40922e-08 0)
(-2.41773e-05 -2.71668e-07 0)
(-2.41217e-05 -4.99009e-07 0)
(-2.39977e-05 -7.65477e-07 0)
(-2.37962e-05 -1.06521e-06 0)
(-2.35096e-05 -1.38743e-06 0)
(-2.31332e-05 -1.72372e-06 0)
(-2.26634e-05 -2.06858e-06 0)
(-2.20973e-05 -2.41698e-06 0)
(-2.14347e-05 -2.76507e-06 0)
(-2.06784e-05 -3.10765e-06 0)
(-1.98323e-05 -3.43992e-06 0)
(-1.89028e-05 -3.75984e-06 0)
(-1.78944e-05 -4.06552e-06 0)
(-1.68108e-05 -4.3552e-06 0)
(-1.56598e-05 -4.62807e-06 0)
(-1.44489e-05 -4.88081e-06 0)
(-1.31833e-05 -5.11239e-06 0)
(-1.18659e-05 -5.32187e-06 0)
(-1.05e-05 -5.50731e-06 0)
(-9.08909e-06 -5.66724e-06 0)
(-7.63797e-06 -5.80014e-06 0)
(-6.15568e-06 -5.90524e-06 0)
(-4.65061e-06 -5.98461e-06 0)
(-3.12844e-06 -6.03302e-06 0)
(-1.64992e-06 -5.84304e-06 0)
(-2.3229e-07 -3.40025e-06 0)
(-1.91823e-07 -2.75887e-06 0)
(-2.6189e-07 -1.03786e-06 0)
(4.38327e-07 3.80822e-07 0)
(7.66615e-07 7.74668e-07 0)
(1.06172e-06 7.51281e-07 0)
(1.15219e-06 7.20186e-07 0)
(1.14625e-06 7.84464e-07 0)
(1.05925e-06 9.51145e-07 0)
(9.02162e-07 1.20774e-06 0)
(6.69523e-07 1.54029e-06 0)
(3.57786e-07 1.93828e-06 0)
(-4.15732e-08 2.39474e-06 0)
(-5.40548e-07 2.90463e-06 0)
(-1.14686e-06 3.46202e-06 0)
(-1.8739e-06 4.06103e-06 0)
(-2.73269e-06 4.70435e-06 0)
(-3.7289e-06 5.377e-06 0)
(-4.86964e-06 6.08271e-06 0)
(-6.16403e-06 6.80839e-06 0)
(-7.61685e-06 7.55087e-06 0)
(-9.22871e-06 8.30163e-06 0)
(-1.10035e-05 9.04726e-06 0)
(-1.29399e-05 9.77731e-06 0)
(-1.5036e-05 1.04786e-05 0)
(-1.72865e-05 1.11371e-05 0)
(-1.96831e-05 1.17372e-05 0)
(-2.22141e-05 1.22628e-05 0)
(-2.48644e-05 1.2697e-05 0)
(-2.76149e-05 1.30229e-05 0)
(-3.04424e-05 1.32234e-05 0)
(-3.33195e-05 1.32826e-05 0)
(-3.62139e-05 1.31865e-05 0)
(-3.9091e-05 1.29217e-05 0)
(-4.19126e-05 1.24778e-05 0)
(-4.46364e-05 1.18484e-05 0)
(-4.72185e-05 1.10299e-05 0)
(-4.96145e-05 1.00244e-05 0)
(-5.17785e-05 8.83995e-06 0)
(-5.36672e-05 7.48998e-06 0)
(-5.52394e-05 5.99396e-06 0)
(-5.64588e-05 4.37626e-06 0)
(-5.72968e-05 2.6687e-06 0)
(-5.7731e-05 9.08639e-07 0)
(-5.77494e-05 -8.64299e-07 0)
(-5.73488e-05 -2.60665e-06 0)
(-5.65416e-05 -4.2748e-06 0)
(-5.53514e-05 -5.82348e-06 0)
(-5.38086e-05 -7.21229e-06 0)
(-5.19578e-05 -8.40892e-06 0)
(-4.98538e-05 -9.38146e-06 0)
(-4.75557e-05 -1.01112e-05 0)
(-4.51261e-05 -1.05872e-05 0)
(-4.26304e-05 -1.08072e-05 0)
(-4.01327e-05 -1.07798e-05 0)
(-3.76927e-05 -1.05221e-05 0)
(-3.5364e-05 -1.00583e-05 0)
(-3.31921e-05 -9.41918e-06 0)
(-3.12139e-05 -8.64001e-06 0)
(-2.94548e-05 -7.75937e-06 0)
(-2.79316e-05 -6.81537e-06 0)
(-2.66519e-05 -5.84146e-06 0)
(-2.56118e-05 -4.87302e-06 0)
(-2.48018e-05 -3.9389e-06 0)
(-2.4206e-05 -3.06544e-06 0)
(-2.3802e-05 -2.27356e-06 0)
(-2.35653e-05 -1.58123e-06 0)
(-2.34678e-05 -9.97105e-07 0)
(-2.3479e-05 -5.28256e-07 0)
(-2.35714e-05 -1.77718e-07 0)
(-2.3718e-05 5.7555e-08 0)
(-2.3891e-05 1.82e-07 0)
(-2.4066e-05 2.02015e-07 0)
(-2.42227e-05 1.26405e-07 0)
(-2.43416e-05 -3.49789e-08 0)
(-2.44053e-05 -2.6881e-07 0)
(-2.43992e-05 -5.63384e-07 0)
(-2.43163e-05 -9.08018e-07 0)
(-2.41466e-05 -1.29249e-06 0)
(-2.38802e-05 -1.70585e-06 0)
(-2.35166e-05 -2.13599e-06 0)
(-2.30546e-05 -2.57644e-06 0)
(-2.2492e-05 -3.02199e-06 0)
(-2.18275e-05 -3.46727e-06 0)
(-2.10626e-05 -3.90644e-06 0)
(-2.02028e-05 -4.33235e-06 0)
(-1.92566e-05 -4.74002e-06 0)
(-1.82293e-05 -5.12686e-06 0)
(-1.71256e-05 -5.49143e-06 0)
(-1.59522e-05 -5.83217e-06 0)
(-1.47169e-05 -6.14574e-06 0)
(-1.34266e-05 -6.43022e-06 0)
(-1.20837e-05 -6.68517e-06 0)
(-1.06906e-05 -6.91021e-06 0)
(-9.25165e-06 -7.10491e-06 0)
(-7.7717e-06 -7.2694e-06 0)
(-6.26001e-06 -7.40332e-06 0)
(-4.72501e-06 -7.50633e-06 0)
(-3.17329e-06 -7.56765e-06 0)
(-1.66854e-06 -7.32661e-06 0)
(-2.33959e-07 -4.29419e-06 0)
(-1.64242e-07 -2.51282e-06 0)
(-2.39514e-07 -1.31889e-06 0)
(3.31815e-07 -6.46175e-08 0)
(6.83688e-07 4.13862e-07 0)
(1.03144e-06 5.29516e-07 0)
(1.21453e-06 6.19539e-07 0)
(1.30755e-06 7.80303e-07 0)
(1.31254e-06 1.02919e-06 0)
(1.23652e-06 1.36353e-06 0)
(1.07739e-06 1.77708e-06 0)
(8.32221e-07 2.26365e-06 0)
(4.92308e-07 2.8175e-06 0)
(4.94551e-08 3.4333e-06 0)
(-5.07967e-07 4.10777e-06 0)
(-1.18759e-06 4.83332e-06 0)
(-2.00346e-06 5.61021e-06 0)
(-2.96484e-06 6.43028e-06 0)
(-4.0771e-06 7.28971e-06 0)
(-5.35132e-06 8.17404e-06 0)
(-6.78867e-06 9.08031e-06 0)
(-8.39828e-06 9.99762e-06 0)
(-1.01843e-05 1.09134e-05 0)
(-1.21446e-05 1.18115e-05 0)
(-1.42796e-05 1.2677e-05 0)
(-1.65852e-05 1.3493e-05 0)
(-1.90542e-05 1.42411e-05 0)
(-2.1676e-05 1.49015e-05 0)
(-2.44356e-05 1.54538e-05 0)
(-2.73143e-05 1.58768e-05 0)
(-3.02883e-05 1.61495e-05 0)
(-3.33288e-05 1.62515e-05 0)
(-3.64032e-05 1.61638e-05 0)
(-3.94744e-05 1.58681e-05 0)
(-4.2499e-05 1.53513e-05 0)
(-4.54315e-05 1.46039e-05 0)
(-4.82239e-05 1.36202e-05 0)
(-5.08251e-05 1.24017e-05 0)
(-5.31831e-05 1.09566e-05 0)
(-5.52477e-05 9.29956e-06 0)
(-5.69715e-05 7.45468e-06 0)
(-5.83114e-05 5.45221e-06 0)
(-5.92309e-05 3.3317e-06 0)
(-5.97038e-05 1.13962e-06 0)
(-5.97136e-05 -1.07357e-06 0)
(-5.92561e-05 -3.25135e-06 0)
(-5.83417e-05 -5.3387e-06 0)
(-5.69937e-05 -7.27751e-06 0)
(-5.52538e-05 -9.01643e-06 0)
(-5.31697e-05 -1.05096e-05 0)
(-5.08022e-05 -1.17198e-05 0)
(-4.82241e-05 -1.26193e-05 0)
(-4.55072e-05 -1.31946e-05 0)
(-4.27281e-05 -1.34436e-05 0)
(-3.99616e-05 -1.33783e-05 0)
(-3.72768e-05 -1.30215e-05 0)
(-3.47347e-05 -1.24058e-05 0)
(-3.23868e-05 -1.15718e-05 0)
(-3.02738e-05 -1.0565e-05 0)
(-2.84245e-05 -9.43345e-06 0)
(-2.68522e-05 -8.2283e-06 0)
(-2.55608e-05 -6.9929e-06 0)
(-2.45451e-05 -5.77126e-06 0)
(-2.3791e-05 -4.60087e-06 0)
(-2.32773e-05 -3.51373e-06 0)
(-2.29767e-05 -2.53528e-06 0)
(-2.28571e-05 -1.6833e-06 0)
(-2.28848e-05 -9.70524e-07 0)
(-2.30274e-05 -4.04495e-07 0)
(-2.32511e-05 1.27453e-08 0)
(-2.35238e-05 2.85341e-07 0)
(-2.38164e-05 4.2066e-07 0)
(-2.41031e-05 4.27982e-07 0)
(-2.43607e-05 3.18028e-07 0)
(-2.45667e-05 1.04306e-07 0)
(-2.47026e-05 -1.98199e-07 0)
(-2.4758e-05 -5.73359e-07 0)
(-2.47243e-05 -1.00809e-06 0)
(-2.45919e-05 -1.48735e-06 0)
(-2.43514e-05 -2.00134e-06 0)
(-2.40024e-05 -2.53743e-06 0)
(-2.35483e-05 -3.08377e-06 0)
(-2.29873e-05 -3.63359e-06 0)
(-2.23185e-05 -4.17973e-06 0)
(-2.15428e-05 -4.71596e-06 0)
(-2.06651e-05 -5.23576e-06 0)
(-1.96963e-05 -5.73269e-06 0)
(-1.86445e-05 -6.20339e-06 0)
(-1.75146e-05 -6.64618e-06 0)
(-1.63124e-05 -7.05807e-06 0)
(-1.50453e-05 -7.43625e-06 0)
(-1.37212e-05 -7.77713e-06 0)
(-1.23446e-05 -8.07945e-06 0)
(-1.09188e-05 -8.34473e-06 0)
(-9.44757e-06 -8.57479e-06 0)
(-7.93579e-06 -8.77092e-06 0)
(-6.39128e-06 -8.93373e-06 0)
(-4.82133e-06 -9.06116e-06 0)
(-3.23517e-06 -9.13702e-06 0)
(-1.69781e-06 -8.84303e-06 0)
(-2.39122e-07 -5.20389e-06 0)
(-1.24372e-07 -2.32949e-06 0)
(-1.4286e-07 -1.57143e-06 0)
(3.6473e-07 -4.78871e-07 0)
(7.39034e-07 3.01687e-08 0)
(1.12242e-06 2.41948e-07 0)
(1.37986e-06 4.32416e-07 0)
(1.55594e-06 6.8501e-07 0)
(1.64568e-06 1.01865e-06 0)
(1.65328e-06 1.4366e-06 0)
(1.57258e-06 1.93799e-06 0)
(1.4009e-06 2.51882e-06 0)
(1.13057e-06 3.17564e-06 0)
(7.52056e-07 3.90442e-06 0)
(2.5532e-07 4.70019e-06 0)
(-3.69492e-07 5.55984e-06 0)
(-1.13396e-06 6.47498e-06 0)
(-2.04782e-06 7.44976e-06 0)
(-3.1245e-06 8.46621e-06 0)
(-4.37227e-06 9.51997e-06 0)
(-5.79233e-06 1.06018e-05 0)
(-7.39489e-06 1.16953e-05 0)
(-9.18919e-06 1.27946e-05 0)
(-1.11761e-05 1.3876e-05 0)
(-1.33544e-05 1.49229e-05 0)
(-1.57226e-05 1.59153e-05 0)
(-1.82749e-05 1.68313e-05 0)
(-2.10018e-05 1.76473e-05 0)
(-2.38896e-05 1.83389e-05 0)
(-2.69196e-05 1.88803e-05 0)
(-3.00682e-05 1.92452e-05 0)
(-3.33057e-05 1.94078e-05 0)
(-3.65978e-05 1.93436e-05 0)
(-3.99038e-05 1.90311e-05 0)
(-4.31771e-05 1.84518e-05 0)
(-4.63677e-05 1.7591e-05 0)
(-4.94207e-05 1.64412e-05 0)
(-5.22781e-05 1.50017e-05 0)
(-5.48805e-05 1.32804e-05 0)
(-5.71687e-05 1.12932e-05 0)
(-5.90862e-05 9.06848e-06 0)
(-6.05812e-05 6.64296e-06 0)
(-6.16088e-05 4.06448e-06 0)
(-6.21357e-05 1.38907e-06 0)
(-6.21396e-05 -1.31819e-06 0)
(-6.16133e-05 -3.98892e-06 0)
(-6.0567e-05 -6.55051e-06 0)
(-5.90284e-05 -8.93088e-06 0)
(-5.704e-05 -1.10638e-05 0)
(-5.46606e-05 -1.28877e-05 0)
(-5.1963e-05 -1.43588e-05 0)
(-4.903e-05 -1.54399e-05 0)
(-4.59499e-05 -1.6114e-05 0)
(-4.28135e-05 -1.63802e-05 0)
(-3.97099e-05 -1.62542e-05 0)
(-3.67196e-05 -1.57663e-05 0)
(-3.39137e-05 -1.49592e-05 0)
(-3.13507e-05 -1.3886e-05 0)
(-2.9075e-05 -1.26052e-05 0)
(-2.71176e-05 -1.1178e-05 0)
(-2.54907e-05 -9.66695e-06 0)
(-2.41945e-05 -8.13001e-06 0)
(-2.32194e-05 -6.61895e-06 0)
(-2.2544e-05 -5.18193e-06 0)
(-2.21402e-05 -3.8569e-06 0)
(-2.19713e-05 -2.67277e-06 0)
(-2.20003e-05 -1.64914e-06 0)
(-2.21888e-05 -8.02287e-07 0)
(-2.24955e-05 -1.38299e-07 0)
(-2.28813e-05 3.42441e-07 0)
(-2.33098e-05 6.456e-07 0)
(-2.3748e-05 7.8047e-07 0)
(-2.41682e-05 7.63665e-07 0)
(-2.45459e-05 6.07421e-07 0)
(-2.48575e-05 3.2916e-07 0)
(-2.50826e-05 -5.65309e-08 0)
(-2.52088e-05 -5.28677e-07 0)
(-2.52301e-05 -1.0669e-06 0)
(-2.51398e-05 -1.65628e-06 0)
(-2.49303e-05 -2.28319e-06 0)
(-2.45991e-05 -2.93483e-06 0)
(-2.41509e-05 -3.59477e-06 0)
(-2.3588e-05 -4.25456e-06 0)
(-2.29099e-05 -4.90689e-06 0)
(-2.21186e-05 -5.54395e-06 0)
(-2.12194e-05 -6.15932e-06 0)
(-2.0224e-05 -6.74723e-06 0)
(-1.91425e-05 -7.30307e-06 0)
(-1.79799e-05 -7.82513e-06 0)
(-1.67419e-05 -8.31011e-06 0)
(-1.54356e-05 -8.75498e-06 0)
(-1.40694e-05 -9.15526e-06 0)
(-1.26509e-05 -9.50887e-06 0)
(-1.11857e-05 -9.8175e-06 0)
(-9.67764e-06 -1.00845e-05 0)
(-8.13044e-06 -1.03129e-05 0)
(-6.54979e-06 -1.05041e-05 0)
(-4.94123e-06 -1.06559e-05 0)
(-3.31733e-06 -1.07474e-05 0)
(-1.74247e-06 -1.03986e-05 0)
(-2.50595e-07 -6.13667e-06 0)
(-8.41413e-08 -2.22919e-06 0)
(-2.20068e-08 -1.84101e-06 0)
(4.73731e-07 -8.93586e-07 0)
(8.8654e-07 -3.80556e-07 0)
(1.30842e-06 -1.00751e-07 0)
(1.6344e-06 1.74089e-07 0)
(1.89059e-06 5.08271e-07 0)
(2.06409e-06 9.26325e-07 0)
(2.15624e-06 1.42914e-06 0)
(2.16005e-06 2.02064e-06 0)
(2.07033e-06 2.69966e-06 0)
(1.87839e-06 3.46221e-06 0)
(1.57452e-06 4.30671e-06 0)
(1.148e-06 5.23066e-06 0)
(5.87759e-07 6.22748e-06 0)
(-1.13018e-07 7.29302e-06 0)
(-9.73129e-07 8.42281e-06 0)
(-2.00644e-06 9.60704e-06 0)
(-3.21531e-06 1.08386e-05 0)
(-4.61302e-06 1.21084e-05 0)
(-6.20526e-06 1.33965e-05 0)
(-8.00343e-06 1.46887e-05 0)
(-1.00162e-05 1.59732e-05 0)
(-1.22403e-05 1.72214e-05 0)
(-1.4677e-05 1.84121e-05 0)
(-1.73224e-05 1.95205e-05 0)
(-2.01685e-05 2.05178e-05 0)
(-2.32029e-05 2.13747e-05 0)
(-2.64083e-05 2.20603e-05 0)
(-2.9761e-05 2.25427e-05 0)
(-3.32306e-05 2.27899e-05 0)
(-3.67801e-05 2.27715e-05 0)
(-4.03664e-05 2.24599e-05 0)
(-4.39393e-05 2.18301e-05 0)
(-4.74421e-05 2.08633e-05 0)
(-5.08131e-05 1.95478e-05 0)
(-5.39858e-05 1.78795e-05 0)
(-5.68913e-05 1.5865e-05 0)
(-5.94592e-05 1.3521e-05 0)
(-6.16211e-05 1.08802e-05 0)
(-6.33147e-05 7.98514e-06 0)
(-6.4484e-05 4.89273e-06 0)
(-6.50855e-05 1.67145e-06 0)
(-6.50905e-05 -1.59857e-06 0)
(-6.44874e-05 -4.83189e-06 0)
(-6.32827e-05 -7.93976e-06 0)
(-6.1506e-05 -1.0828e-05 0)
(-5.92098e-05 -1.34099e-05 0)
(-5.6464e-05 -1.56131e-05 0)
(-5.33538e-05 -1.73754e-05 0)
(-4.99788e-05 -1.86545e-05 0)
(-4.64469e-05 -1.94283e-05 0)
(-4.28676e-05 -1.96972e-05 0)
(-3.93469e-05 -1.94816e-05 0)
(-3.59809e-05 -1.88215e-05 0)
(-3.28536e-05 -1.7773e-05 0)
(-3.0032e-05 -1.6404e-05 0)
(-2.75652e-05 -1.47899e-05 0)
(-2.54856e-05 -1.30084e-05 0)
(-2.38036e-05 -1.1136e-05 0)
(-2.25122e-05 -9.24612e-06 0)
(-2.15966e-05 -7.40257e-06 0)
(-2.10285e-05 -5.66127e-06 0)
(-2.07678e-05 -4.06799e-06 0)
(-2.07687e-05 -2.65562e-06 0)
(-2.09865e-05 -1.44881e-06 0)
(-2.13739e-05 -4.60806e-07 0)
(-2.18825e-05 3.02847e-07 0)
(-2.2467e-05 8.41342e-07 0)
(-2.30856e-05 1.16598e-06 0)
(-2.36981e-05 1.28884e-06 0)
(-2.4276e-05 1.2299e-06 0)
(-2.47951e-05 1.012e-06 0)
(-2.52305e-05 6.52067e-07 0)
(-2.55604e-05 1.68413e-07 0)
(-2.57684e-05 -4.16298e-07 0)
(-2.58519e-05 -1.07673e-06 0)
(-2.58083e-05 -1.79363e-06 0)
(-2.56301e-05 -2.54927e-06 0)
(-2.53141e-05 -3.32714e-06 0)
(-2.48681e-05 -4.11167e-06 0)
(-2.42995e-05 -4.8894e-06 0)
(-2.36079e-05 -5.65475e-06 0)
(-2.27951e-05 -6.39874e-06 0)
(-2.18682e-05 -7.1146e-06 0)
(-2.08398e-05 -7.79661e-06 0)
(-1.97222e-05 -8.43835e-06 0)
(-1.85214e-05 -9.0384e-06 0)
(-1.7242e-05 -9.59553e-06 0)
(-1.58902e-05 -1.01071e-05 0)
(-1.44748e-05 -1.05687e-05 0)
(-1.30066e-05 -1.0977e-05 0)
(-1.14943e-05 -1.13326e-05 0)
(-9.94282e-06 -1.16388e-05 0)
(-8.35529e-06 -1.18997e-05 0)
(-6.7346e-06 -1.21179e-05 0)
(-5.08461e-06 -1.22924e-05 0)
(-3.42028e-06 -1.24e-05 0)
(-1.80382e-06 -1.19966e-05 0)
(-2.68601e-07 -7.10141e-06 0)
(-4.5243e-08 -2.21141e-06 0)
(1.07548e-07 -2.15976e-06 0)
(6.25613e-07 -1.3382e-06 0)
(1.09347e-06 -8.3244e-07 0)
(1.56954e-06 -5.02512e-07 0)
(1.96842e-06 -1.58339e-07 0)
(2.30492e-06 2.51629e-07 0)
(2.56608e-06 7.47037e-07 0)
(2.74754e-06 1.33465e-06 0)
(2.84313e-06 2.01789e-06 0)
(2.84255e-06 2.7959e-06 0)
(2.73776e-06 3.66715e-06 0)
(2.52069e-06 4.63164e-06 0)
(2.17631e-06 5.68599e-06 0)
(1.69315e-06 6.82654e-06 0)
(1.0617e-06 8.04859e-06 0)
(2.66538e-07 9.34205e-06 0)
(-7.0843e-07 1.07047e-05 0)
(-1.87057e-06 1.21256e-05 0)
(-3.23413e-06 1.35928e-05 0)
(-4.81442e-06 1.50931e-05 0)
(-6.61229e-06 1.65998e-05 0)
(-8.64332e-06 1.81028e-05 0)
(-1.09155e-05 1.95787e-05 0)
(-1.34236e-05 2.09932e-05 0)
(-1.61693e-05 2.23205e-05 0)
(-1.91477e-05 2.35292e-05 0)
(-2.23472e-05 2.45826e-05 0)
(-2.57518e-05 2.5444e-05 0)
(-2.93386e-05 2.60752e-05 0)
(-3.30769e-05 2.64374e-05 0)
(-3.69279e-05 2.64928e-05 0)
(-4.08453e-05 2.62055e-05 0)
(-4.47737e-05 2.55441e-05 0)
(-4.865e-05 2.44829e-05 0)
(-5.24045e-05 2.30039e-05 0)
(-5.59608e-05 2.10991e-05 0)
(-5.92387e-05 1.87727e-05 0)
(-6.21531e-05 1.60423e-05 0)
(-6.46214e-05 1.29427e-05 0)
(-6.65678e-05 9.52223e-06 0)
(-6.79216e-05 5.84756e-06 0)
(-6.86258e-05 2.00233e-06 0)
(-6.86415e-05 -1.91668e-06 0)
(-6.79531e-05 -5.80227e-06 0)
(-6.6562e-05 -9.54012e-06 0)
(-6.44975e-05 -1.30192e-05 0)
(-6.18243e-05 -1.61271e-05 0)
(-5.86254e-05 -1.87684e-05 0)
(-5.50038e-05 -2.08657e-05 0)
(-5.10823e-05 -2.23662e-05 0)
(-4.69918e-05 -2.32423e-05 0)
(-4.2866e-05 -2.3495e-05 0)
(-3.88334e-05 -2.31524e-05 0)
(-3.50101e-05 -2.2267e-05 0)
(-3.14953e-05 -2.09119e-05 0)
(-2.83668e-05 -1.91744e-05 0)
(-2.56786e-05 -1.71507e-05 0)
(-2.34631e-05 -1.49393e-05 0)
(-2.17278e-05 -1.26333e-05 0)
(-2.04604e-05 -1.03252e-05 0)
(-1.9634e-05 -8.09308e-06 0)
(-1.92089e-05 -6.00193e-06 0)
(-1.91342e-05 -4.10494e-06 0)
(-1.93519e-05 -2.44111e-06 0)
(-1.98054e-05 -1.03581e-06 0)
(-2.0437e-05 9.92299e-08 0)
(-2.11932e-05 9.53703e-07 0)
(-2.20179e-05 1.54709e-06 0)
(-2.2862e-05 1.88035e-06 0)
(-2.36838e-05 1.9759e-06 0)
(-2.44449e-05 1.85509e-06 0)
(-2.51236e-05 1.55189e-06 0)
(-2.57009e-05 1.08905e-06 0)
(-2.61509e-05 4.87392e-07 0)
(-2.64539e-05 -2.27891e-07 0)
(-2.66074e-05 -1.02832e-06 0)
(-2.66124e-05 -1.88918e-06 0)
(-2.64639e-05 -2.78883e-06 0)
(-2.61615e-05 -3.70905e-06 0)
(-2.57131e-05 -4.63153e-06 0)
(-2.5131e-05 -5.54019e-06 0)
(-2.44191e-05 -6.42816e-06 0)
(-2.35782e-05 -7.28703e-06 0)
(-2.2617e-05 -8.10983e-06 0)
(-2.15474e-05 -8.89052e-06 0)
(-2.0384e-05 -9.62158e-06 0)
(-1.91368e-05 -1.03002e-05 0)
(-1.78104e-05 -1.09278e-05 0)
(-1.64086e-05 -1.15038e-05 0)
(-1.49391e-05 -1.20253e-05 0)
(-1.34146e-05 -1.24885e-05 0)
(-1.18474e-05 -1.28925e-05 0)
(-1.02446e-05 -1.32393e-05 0)
(-8.60964e-06 -1.35327e-05 0)