/*--------------------------------*- C++ -*----------------------------------*\
| =========                 |                                                 |
| \\      /  F ield         | OpenFOAM: The Open Source CFD Toolbox           |
|  \\    /   O peration     | Version:  2312                                  |
|   \\  /    A nd           | Website:  www.openfoam.com                      |
|    \\/     M anipulation  |                                                 |
\*---------------------------------------------------------------------------*/
FoamFile
{
    version     2.0;
    format      ascii;
    arch        "LSB;label=32;scalar=64";
    class       surfaceScalarField;
    location    "0.3";
    object      alphaPhi0.water;
}
// * * * * * * * * * * * * * * * * * * * * * * * * * * * * * * * * * * * * * //

dimensions      [0 3 -1 0 0 0 0];

oriented        oriented;

internalField   nonuniform List<scalar> 
19800
(
-3.79246e-13
3.55452e-13
-1.75309e-12
1.37494e-12
-3.22463e-12
1.47324e-12
-4.13384e-12
9.10223e-13
-4.54335e-12
4.09396e-13
-4.71306e-12
1.68722e-13
-4.84143e-12
1.27105e-13
-5.02038e-12
1.78016e-13
-5.28892e-12
2.68324e-13
-5.6548e-12
3.66444e-13
-6.12148e-12
4.67819e-13
-6.68926e-12
5.6913e-13
-7.35732e-12
6.69225e-13
-8.12803e-12
7.71436e-13
-9.00031e-12
8.72524e-13
-9.97562e-12
9.75294e-13
-1.10556e-11
1.08005e-12
-1.22395e-11
1.1845e-12
-1.35268e-11
1.28857e-12
-1.49151e-11
1.3901e-12
-1.63993e-11
1.48605e-12
-1.79704e-11
1.57254e-12
-1.96144e-11
1.64461e-12
-2.13127e-11
1.69822e-12
-2.30415e-11
1.72836e-12
-2.47711e-11
1.72941e-12
-2.64666e-11
1.69564e-12
-2.80873e-11
1.6214e-12
-2.95886e-11
1.50201e-12
-3.09192e-11
1.33117e-12
-3.20235e-11
1.10475e-12
-3.28362e-11
8.13154e-13
-3.33003e-11
4.64692e-13
-3.33524e-11
5.24365e-14
-3.29265e-11
-4.25925e-13
-3.19665e-11
-9.60572e-13
-3.04096e-11
-1.55774e-12
-2.82016e-11
-2.20868e-12
-2.5298e-11
-2.90385e-12
-2.16815e-11
-3.61649e-12
-1.732e-11
-4.36153e-12
-1.22144e-11
-5.10573e-12
-6.37839e-12
-5.83592e-12
1.53518e-13
-6.53171e-12
7.33572e-12
-7.18191e-12
1.50924e-11
-7.75627e-12
2.33255e-11
-8.23313e-12
3.19215e-11
-8.59647e-12
4.07529e-11
-8.83126e-12
4.96807e-11
-8.9264e-12
5.85556e-11
-8.8733e-12
6.72272e-11
-8.66987e-12
7.55464e-11
-8.31769e-12
8.33702e-11
-7.82355e-12
9.05689e-11
-7.19926e-12
9.70291e-11
-6.46034e-12
1.02654e-10
-5.62533e-12
1.07369e-10
-4.71443e-12
1.11122e-10
-3.75332e-12
1.13887e-10
-2.76464e-12
1.15657e-10
-1.77054e-12
1.16448e-10
-7.92878e-13
1.16298e-10
1.49888e-13
1.15259e-10
1.03759e-12
1.13402e-10
1.85568e-12
1.10806e-10
2.59623e-12
1.07556e-10
3.25042e-12
1.03743e-10
3.81344e-12
9.94601e-11
4.28298e-12
9.48022e-11
4.65828e-12
8.9859e-11
4.94219e-12
8.47185e-11
5.14002e-12
7.94613e-11
5.25718e-12
7.41596e-11
5.30131e-12
6.88803e-11
5.28021e-12
6.36778e-11
5.20159e-12
5.86018e-11
5.07431e-12
5.36921e-11
4.90666e-12
4.89822e-11
4.70747e-12
4.44941e-11
4.48701e-12
4.02477e-11
4.24679e-12
3.62521e-11
3.99476e-12
3.2514e-11
3.73781e-12
2.90297e-11
3.48171e-12
2.58013e-11
3.22987e-12
2.28185e-11
2.98367e-12
2.00758e-11
2.74323e-12
1.75656e-11
2.51036e-12
1.52808e-11
2.28512e-12
1.32101e-11
2.06917e-12
1.13409e-11
1.86769e-12
9.65634e-12
1.68389e-12
8.13019e-12
1.52373e-12
6.74264e-12
1.38916e-12
5.46271e-12
1.2816e-12
4.26793e-12
1.198e-12
3.13058e-12
1.13912e-12
2.00128e-12
1.12682e-12
8.13517e-13
1.18874e-12
8.10668e-13
7.17566e-13
-3.61163e-13
5.0393e-13
1.59156e-12
-7.42052e-13
2.72071e-12
-2.01111e-12
2.17905e-12
-2.89239e-12
1.28926e-12
-3.47337e-12
7.48074e-13
-3.92157e-12
5.74332e-13
-4.36151e-12
6.18064e-13
-4.86451e-12
7.72506e-13
-5.47798e-12
9.81849e-13
-6.22683e-12
1.21888e-12
-7.12906e-12
1.47336e-12
-8.20262e-12
1.74423e-12
-9.45461e-12
2.02422e-12
-1.08964e-11
2.3147e-12
-1.25347e-11
2.61406e-12
-1.43739e-11
2.92044e-12
-1.64186e-11
3.23122e-12
-1.86686e-11
3.54128e-12
-2.11204e-11
3.84467e-12
-2.37662e-11
4.13383e-12
-2.65916e-11
4.39869e-12
-2.95755e-11
4.62821e-12
-3.26887e-11
4.81079e-12
-3.58936e-11
4.93307e-12
-3.91444e-11
4.98083e-12
-4.23865e-11
4.93891e-12
-4.55558e-11
4.79205e-12
-4.85791e-11
4.52649e-12
-5.13748e-11
4.12759e-12
-5.38522e-11
3.5828e-12
-5.59188e-11
2.88034e-12
-5.74667e-11
2.01299e-12
-5.83964e-11
9.81954e-13
-5.86044e-11
-2.18823e-13
-5.79818e-11
-1.58427e-12
-5.64328e-11
-3.10771e-12
-5.387e-11
-4.77197e-12
-5.02197e-11
-6.5543e-12
-4.54146e-11
-8.42165e-12
-3.94263e-11
-1.03499e-11
-3.22402e-11
-1.22919e-11
-2.38747e-11
-1.42011e-11
-1.4375e-11
-1.60307e-11
-3.8443e-12
-1.77125e-11
7.6383e-12
-1.92392e-11
1.99133e-11
-2.0508e-11
3.28104e-11
-2.1493e-11
4.61278e-11
-2.21474e-11
5.9649e-11
-2.24445e-11
7.31386e-11
-2.236e-11
8.63615e-11
-2.18915e-11
9.90854e-11
-2.10411e-11
1.11087e-10
-1.98252e-11
1.2216e-10
-1.82735e-11
1.32127e-10
-1.64267e-11
1.40835e-10
-1.43342e-11
1.48181e-10
-1.20593e-11
1.54069e-10
-9.64248e-12
1.58461e-10
-7.15667e-12
1.61348e-10
-4.659e-12
1.62759e-10
-2.20571e-12
1.62746e-10
1.61502e-13
1.61396e-10
2.38543e-12
1.58812e-10
4.43841e-12
1.55115e-10
6.29288e-12
1.50438e-10
7.92853e-12
1.44919e-10
9.33357e-12
1.38699e-10
1.05023e-11
1.31923e-10
1.14352e-11
1.24726e-10
1.21388e-11
1.1724e-10
1.26248e-11
1.09588e-10
1.29089e-11
1.0188e-10
1.30085e-11
9.42131e-11
1.29458e-11
8.6673e-11
1.27383e-11
7.93335e-11
1.24104e-11
7.22555e-11
1.19823e-11
6.54876e-11
1.14744e-11
5.90648e-11
1.09076e-11
5.3015e-11
1.02962e-11
4.73527e-11
9.65434e-12
4.20898e-11
9.00051e-12
3.72266e-11
8.34349e-12
3.27571e-11
7.69946e-12
2.86767e-11
7.06654e-12
2.49714e-11
6.44916e-12
2.16277e-11
5.8542e-12
1.8629e-11
5.28143e-12
1.59536e-11
4.74077e-12
1.35784e-11
4.24112e-12
1.14756e-11
3.78792e-12
9.61044e-12
3.38939e-12
7.95292e-12
3.0506e-12
6.46341e-12
2.7729e-12
5.10774e-12
2.5546e-12
3.84121e-12
2.40818e-12
2.57017e-12
2.3979e-12
1.11773e-12
2.6388e-12
1.92809e-12
8.93461e-13
-1.25292e-12
1.78327e-12
7.0417e-13
1.65654e-12
2.84829e-12
9.02537e-13
2.93287e-12
7.65336e-15
2.18361e-12
-8.1988e-13
1.57535e-12
-1.56768e-12
1.32242e-12
-2.29232e-12
1.34358e-12
-3.05496e-12
1.53657e-12
-3.90642e-12
1.83521e-12
-4.88685e-12
2.20151e-12
-6.0273e-12
2.61592e-12
-7.35069e-12
3.06917e-12
-8.87743e-12
3.55172e-12
-1.06257e-11
4.06315e-12
-1.26067e-11
4.59512e-12
-1.48262e-11
5.14061e-12
-1.72922e-11
5.69869e-12
-2.00058e-11
6.25673e-12
-2.29613e-11
6.80157e-12
-2.61505e-11
7.32362e-12
-2.95572e-11
7.80504e-12
-3.31577e-11
8.22794e-12
-3.692e-11
8.57275e-12
-4.08038e-11
8.81741e-12
-4.47598e-11
8.93816e-12
-4.87294e-11
8.91001e-12
-5.26439e-11
8.70764e-12
-5.64232e-11
8.30622e-12
-5.99779e-11
7.68247e-12
-6.32086e-11
6.81373e-12
-6.60099e-11
5.68197e-12
-6.82703e-11
4.27362e-12
-6.98722e-11
2.58383e-12
-7.06915e-11
5.99903e-13
-7.06094e-11
-1.66723e-12
-6.95116e-11
-4.20627e-12
-6.72967e-11
-6.98741e-12
-6.38713e-11
-9.98012e-12
-5.9163e-11
-1.31302e-11
-5.31248e-11
-1.63882e-11
-4.57341e-11
-1.96827e-11
-3.70018e-11
-2.29334e-11
-2.69774e-11
-2.60549e-11
-1.57299e-11
-2.89605e-11
-3.42378e-12
-3.15464e-11
9.825e-12
-3.3757e-11
2.38085e-11
-3.54757e-11
3.83062e-11
-3.66441e-11
5.3071e-11
-3.72077e-11
6.78408e-11
-3.71278e-11
8.23486e-11
-3.63987e-11
9.63296e-11
-3.50222e-11
1.09533e-10
-3.30287e-11
1.21728e-10
-3.04692e-11
1.32713e-10
-2.74122e-11
1.42317e-10
-2.39379e-11
1.50407e-10
-2.01481e-11
1.56907e-10
-1.6141e-11
1.61762e-10
-1.20121e-11
1.64966e-10
-7.86364e-12
1.66549e-10
-3.79251e-12
1.66578e-10
1.29221e-13
1.65158e-10
3.80386e-12
1.62394e-10
7.20103e-12
1.58431e-10
1.02563e-11
1.53413e-10
1.29482e-11
1.47498e-10
1.52508e-11
1.4084e-10
1.71601e-11
1.33598e-10
1.8677e-11
1.25921e-10
1.98155e-11
1.17953e-10
2.05914e-11
1.09824e-10
2.10377e-11
1.01656e-10
2.11767e-11
9.35525e-11
2.10483e-11
8.56053e-11
2.06842e-11
7.78935e-11
2.01209e-11
7.04816e-11
1.93915e-11
6.34221e-11
1.85338e-11
5.6754e-11
1.75725e-11
5.05046e-11
1.65427e-11
4.46927e-11
1.54643e-11
3.9328e-11
1.43624e-11
3.44132e-11
1.32606e-11
2.99419e-11
1.21707e-11
2.59036e-11
1.11066e-11
2.22837e-11
1.00678e-11
1.90593e-11
9.07722e-12
1.62036e-11
8.13627e-12
1.36918e-11
7.25146e-12
1.14969e-11
6.43661e-12
9.58487e-12
5.70165e-12
7.92503e-12
5.04925e-12
6.48632e-12
4.48938e-12
5.23355e-12
4.02493e-12
4.13786e-12
3.65485e-12
3.14267e-12
3.39854e-12
2.16033e-12
3.38279e-12
9.89549e-13
3.81074e-12
2.92177e-12
3.35643e-13
-1.58698e-12
1.26801e-12
-2.26422e-13
1.78973e-12
2.32732e-12
1.68064e-12
3.04248e-12
1.18779e-12
2.67719e-12
5.31982e-13
2.23212e-12
-1.85934e-13
2.04139e-12
-9.48981e-13
2.10774e-12
-1.77626e-12
2.36526e-12
-2.70153e-12
2.76242e-12
-3.75692e-12
3.25925e-12
-4.97586e-12
3.83708e-12
-6.38328e-12
4.478e-12
-8.0025e-12
5.17129e-12
-9.85267e-12
5.91297e-12
-1.19472e-11
6.68933e-12
-1.4301e-11
7.49468e-12
-1.69149e-11
8.31341e-12
-1.97935e-11
9.13602e-12
-2.29368e-11
9.94499e-12
-2.63337e-11
1.07198e-11
-2.99686e-11
1.1439e-11
-3.38186e-11
1.20774e-11
-3.78525e-11
1.26071e-11
-4.20306e-11
1.29969e-11
-4.63041e-11
1.32134e-11
-5.06142e-11
1.32214e-11
-5.48911e-11
1.29849e-11
-5.90534e-11
1.24683e-11
-6.30086e-11
1.16374e-11
-6.66548e-11
1.04598e-11
-6.98805e-11
8.90799e-12
-7.25654e-11
6.95882e-12
-7.45824e-11
4.60088e-12
-7.58089e-11
1.82593e-12
-7.61056e-11
-1.3713e-12
-7.53484e-11
-4.96428e-12
-7.342e-11
-8.9163e-12
-7.02173e-11
-1.31832e-11
-6.56541e-11
-1.76937e-11
-5.96691e-11
-2.23734e-11
-5.22317e-11
-2.71204e-11
-4.33453e-11
-3.18204e-11
-3.30501e-11
-3.63507e-11
-2.14374e-11
-4.05737e-11
-8.61738e-12
-4.43672e-11
5.21712e-12
-4.75919e-11
1.98799e-11
-5.01377e-11
3.51253e-11
-5.18887e-11
5.06849e-11
-5.27665e-11
6.62733e-11
-5.27149e-11
8.15968e-11
-5.17219e-11
9.63654e-11
-4.97916e-11
1.10304e-10
-4.69684e-11
1.23161e-10
-4.33269e-11
1.34717e-10
-3.89675e-11
1.44794e-10
-3.4013e-11
1.53247e-10
-2.85985e-11
1.59986e-10
-2.28795e-11
1.64968e-10
-1.69947e-11
1.68192e-10
-1.10901e-11
1.69696e-10
-5.3005e-12
1.6956e-10
2.61259e-13
1.67899e-10
5.46437e-12
1.6485e-10
1.02506e-11
1.60551e-10
1.45574e-11
1.55165e-10
1.83364e-11
1.48861e-10
2.1555e-11
1.41812e-10
2.42096e-11
1.34182e-10
2.6306e-11
1.26133e-10
2.78637e-11
1.17811e-10
2.89121e-11
1.09357e-10
2.94919e-11
1.00892e-10
2.96431e-11
9.25211e-11
2.94186e-11
8.43434e-11
2.88607e-11
7.64356e-11
2.80282e-11
6.88587e-11
2.69651e-11
6.16731e-11
2.57172e-11
5.49105e-11
2.43334e-11
4.85987e-11
2.28507e-11
4.27596e-11
2.13048e-11
3.73926e-11
1.97287e-11
3.25028e-11
1.81501e-11
2.8084e-11
1.6591e-11
2.41213e-11
1.50687e-11
2.05838e-11
1.36054e-11
1.74604e-11
1.22014e-11
1.47174e-11
1.08768e-11
1.23276e-11
9.64198e-12
1.02565e-11
8.50696e-12
8.47369e-12
7.48235e-12
6.94763e-12
6.57563e-12
5.64752e-12
5.79283e-12
4.53647e-12
5.13344e-12
3.58862e-12
4.60627e-12
2.7495e-12
4.2388e-12
1.92541e-12
4.20705e-12
9.08293e-13
4.82795e-12
3.82716e-12
-1.617e-13
-1.4241e-12
3.91048e-13
-7.77685e-13
1.04536e-12
1.67422e-12
1.33541e-12
2.75396e-12
1.22931e-12
2.78504e-12
8.66349e-13
2.59659e-12
3.46834e-13
2.5619e-12
-2.84197e-13
2.7395e-12
-1.02612e-12
3.10824e-12
-1.89214e-12
3.6302e-12
-2.90783e-12
4.27713e-12
-4.09776e-12
5.02884e-12
-5.48461e-12
5.86566e-12
-7.09538e-12
6.78178e-12
-8.94606e-12
7.76288e-12
-1.10538e-11
8.79654e-12
-1.34271e-11
9.86784e-12
-1.60811e-11
1.09674e-11
-1.90189e-11
1.20734e-11
-2.22381e-11
1.3163e-11
-2.57338e-11
1.42141e-11
-2.94923e-11
1.51965e-11
-3.34928e-11
1.60779e-11
-3.77065e-11
1.68219e-11
-4.20959e-11
1.73879e-11
-4.66138e-11
1.77327e-11
-5.1202e-11
1.78101e-11
-5.57904e-11
1.7573e-11
-6.02968e-11
1.69739e-11
-6.46262e-11
1.59661e-11
-6.86732e-11
1.45066e-11
-7.23195e-11
1.25545e-11
-7.54386e-11
1.00781e-11
-7.78934e-11
7.05559e-12
-7.95461e-11
3.47821e-12
-8.0254e-11
-6.64016e-13
-7.98739e-11
-5.34473e-12
-7.8269e-11
-1.05213e-11
-7.53207e-11
-1.61317e-11
-7.09253e-11
-2.20896e-11
-6.50075e-11
-2.82918e-11
-5.75214e-11
-3.46069e-11
-4.84588e-11
-4.08835e-11
-3.78562e-11
-4.69537e-11
-2.57929e-11
-5.2637e-11
-1.24156e-11
-5.77446e-11
2.13737e-12
-6.21453e-11
1.76084e-11
-6.56082e-11
3.37424e-11
-6.80219e-11
5.02417e-11
-6.92654e-11
6.68002e-11
-6.9273e-11
8.30822e-11
-6.80042e-11
9.87662e-11
-6.54769e-11
1.13547e-10
-6.17501e-11
1.27146e-10
-5.69262e-11
1.39322e-10
-5.11417e-11
1.49875e-10
-4.45637e-11
1.5867e-10
-3.73924e-11
1.65604e-10
-2.98124e-11
1.70625e-10
-2.20178e-11
1.73759e-10
-1.42273e-11
1.75056e-10
-6.59975e-12
1.7461e-10
7.05056e-13
1.7255e-10
7.52628e-12
1.69024e-10
1.37781e-11
1.64205e-10
1.9378e-11
1.58278e-10
2.42647e-11
1.5142e-10
2.84125e-11
1.43822e-10
3.18066e-11
1.3566e-10
3.44668e-11
1.27106e-10
3.6416e-11
1.18319e-10
3.77016e-11
1.09438e-10
3.8373e-11
1.00592e-10
3.84907e-11
9.18926e-11
3.81175e-11
8.34266e-11
3.73249e-11
7.52828e-11
3.61705e-11
6.75197e-11
3.47272e-11
6.01824e-11
3.30533e-11
5.33134e-11
3.12028e-11
4.69337e-11
2.92299e-11
4.10564e-11
2.71826e-11
3.56885e-11
2.51004e-11
3.08171e-11
2.30183e-11
2.64403e-11
2.09689e-11
2.25325e-11
1.89757e-11
1.90749e-11
1.70594e-11
1.60443e-11
1.52337e-11
1.34012e-11
1.35163e-11
1.11191e-11
1.19219e-11
9.16408e-12
1.0463e-11
7.50341e-12
9.1459e-12
6.10235e-12
7.97727e-12
4.92913e-12
6.96561e-12
3.95153e-12
6.11199e-12
3.13534e-12
5.42304e-12
2.43228e-12
4.94098e-12
1.73873e-12
4.89913e-12
8.40682e-13
5.73104e-12
4.6689e-12
-4.07545e-13
-1.01566e-12
-1.59283e-13
-1.02423e-12
4.36788e-13
1.08007e-12
8.88076e-13
2.30497e-12
1.04712e-12
2.62809e-12
9.4424e-13
2.70072e-12
6.46987e-13
2.85952e-12
1.9135e-13
3.19524e-12
-4.08944e-13
3.70914e-12
-1.1611e-12
4.38373e-12
-2.08112e-12
5.1988e-12
-3.19092e-12
6.13978e-12
-4.51319e-12
7.18806e-12
-6.06733e-12
8.33524e-12
-7.87249e-12
9.56715e-12
-9.94676e-12
1.08701e-11
-1.2309e-11
1.22296e-11
-1.49684e-11
1.3626e-11
-1.79298e-11
1.50333e-11
-2.11993e-11
1.64307e-11
-2.47747e-11
1.7788e-11
-2.86445e-11
1.90656e-11
-3.2792e-11
2.02259e-11
-3.71924e-11
2.12233e-11
-4.18112e-11
2.20079e-11
-4.66035e-11
2.25255e-11
-5.15124e-11
2.27186e-11
-5.6468e-11
2.25276e-11
-6.13868e-11
2.18915e-11
-6.61715e-11
2.07501e-11
-7.07112e-11
1.90459e-11
-7.48817e-11
1.6725e-11
-7.85467e-11
1.3743e-11
-8.15559e-11
1.00646e-11
-8.37637e-11
5.68589e-12
-8.5006e-11
5.78472e-13
-8.51165e-11
-5.23399e-12
-8.39391e-11
-1.16987e-11
-8.13346e-11
-1.87365e-11
-7.71759e-11
-2.62491e-11
-7.13645e-11
-3.4104e-11
-6.38346e-11
-4.21368e-11
-5.45618e-11
-5.01559e-11
-4.3573e-11
-5.79422e-11
-3.09412e-11
-6.52683e-11
-1.67905e-11
-7.18949e-11
-1.36425e-12
-7.75717e-11
1.51541e-11
-8.21264e-11
3.24463e-11
-8.53133e-11
5.01802e-11
-8.69993e-11
6.79963e-11
-8.70895e-11
8.55258e-11
-8.55346e-11
1.024e-10
-8.23521e-11
1.18273e-10
-7.76234e-11
1.32827e-10
-7.14805e-11
1.45793e-10
-6.41067e-11
1.56956e-10
-5.57248e-11
1.6615e-10
-4.65863e-11
1.73279e-10
-3.69411e-11
1.78334e-10
-2.70729e-11
1.81312e-10
-1.72057e-11
1.82291e-10
-7.57969e-12
1.81386e-10
1.60994e-12
1.78765e-10
1.01487e-11
1.74596e-10
1.79484e-11
1.69075e-10
2.48987e-11
1.62414e-10
3.09283e-11
1.54817e-10
3.60089e-11
1.46487e-10
4.01359e-11
1.37623e-10
4.333e-11
1.28408e-10
4.56307e-11
1.19011e-10
4.71009e-11
1.09578e-10
4.78067e-11
1.00242e-10
4.78284e-11
9.11139e-11
4.7245e-11
8.22948e-11
4.61435e-11
7.38524e-11
4.46127e-11
6.58546e-11
4.2726e-11
5.83438e-11
4.05661e-11
5.13501e-11
3.81968e-11
4.48915e-11
3.56897e-11
3.8975e-11
3.30977e-11
3.36033e-11
3.0474e-11
2.87633e-11
2.78584e-11
2.44405e-11
2.52907e-11
2.06114e-11
2.28022e-11
1.72515e-11
2.04142e-11
1.43284e-11
1.81551e-11
1.18068e-11
1.60377e-11
9.66043e-12
1.40686e-11
7.84655e-12
1.22753e-11
6.33241e-12
1.06579e-11
5.0867e-12
9.22563e-12
4.07015e-12
7.98125e-12
3.25206e-12
6.92859e-12
2.59368e-12
6.07796e-12
2.05428e-12
5.48661e-12
1.51793e-12
5.43833e-12
7.56625e-13
6.49431e-12
5.42559e-12
-4.48621e-13
-5.66119e-13
-3.3179e-13
-1.13879e-12
1.86708e-13
5.64091e-13
6.97208e-13
1.79702e-12
1.01168e-12
2.31546e-12
1.10433e-12
2.60875e-12
1.0009e-12
2.96274e-12
7.22821e-13
3.47301e-12
2.80553e-13
4.15169e-12
-3.32045e-13
4.99725e-12
-1.1297e-12
5.99749e-12
-2.13047e-12
7.14107e-12
-3.35492e-12
8.4123e-12
-4.82587e-12
9.8055e-12
-6.56258e-12
1.1303e-11
-8.58682e-12
1.28935e-11
-1.09142e-11
1.4556e-11
-1.3559e-11
1.62692e-11
-1.65385e-11
1.80109e-11
-1.98557e-11
1.97459e-11
-2.35121e-11
2.14429e-11
-2.75025e-11
2.30554e-11
-3.18163e-11
2.454e-11
-3.64327e-11
2.58403e-11
-4.13212e-11
2.68968e-11
-4.64401e-11
2.76442e-11
-5.17346e-11
2.80124e-11
-5.71358e-11
2.79277e-11
-6.25598e-11
2.73144e-11
-6.79066e-11
2.60961e-11
-7.30599e-11
2.41986e-11
-7.78882e-11
2.15529e-11
-8.22437e-11
1.80982e-11
-8.59662e-11
1.37872e-11
-8.88754e-11
8.59567e-12
-9.08008e-11
2.50466e-12
-9.15555e-11
-4.47887e-12
-9.09487e-11
-1.23057e-11
-8.88102e-11
-2.08757e-11
-8.49834e-11
-3.00766e-11
-7.93395e-11
-3.9748e-11
-7.17867e-11
-4.96886e-11
-6.2279e-11
-5.96621e-11
-5.08239e-11
-6.93964e-11
-3.74915e-11
-7.86003e-11
-2.24275e-11
-8.69584e-11
-5.82803e-12
-9.4171e-11
1.20109e-11
-9.99653e-11
3.07841e-11
-1.04086e-10
5.00978e-11
-1.06313e-10
6.9537e-11
-1.0653e-10
8.8673e-11
-1.04672e-10
1.07077e-10
-1.00757e-10
1.24348e-10
-9.48948e-11
1.40122e-10
-8.72541e-11
1.54088e-10
-7.80721e-11
1.66006e-10
-6.76414e-11
1.75698e-10
-5.62772e-11
1.83085e-10
-4.43271e-11
1.88124e-10
-3.21105e-11
1.90863e-10
-1.99446e-11
1.91404e-10
-8.11928e-12
1.89899e-10
3.11427e-12
1.86534e-10
1.35141e-11
1.81524e-10
2.296e-11
1.75099e-10
3.13242e-11
1.67496e-10
3.85327e-11
1.58952e-10
4.45537e-11
1.49695e-10
4.93921e-11
1.39946e-10
5.30798e-11
1.29902e-10
5.56765e-11
1.19744e-10
5.72607e-11
1.09627e-10
5.79239e-11
9.969e-11
5.7766e-11
9.00458e-11
5.689e-11
8.07896e-11
5.54007e-11
7.19956e-11
5.3408e-11
6.3718e-11
5.10047e-11
5.60005e-11
4.82843e-11
4.8861e-11
4.53367e-11
4.2315e-11
4.22367e-11
3.63647e-11
3.90503e-11
3.09992e-11
3.58375e-11
2.62047e-11
3.26506e-11
2.19582e-11
2.95343e-11
1.82329e-11
2.65247e-11
1.4996e-11
2.36521e-11
1.22167e-11
2.09344e-11
9.85665e-12
1.83954e-11
7.87137e-12
1.60499e-11
6.23298e-12
1.39122e-11
4.90251e-12
1.19879e-11
3.844e-12
1.02855e-11
3.01799e-12
8.80655e-12
2.39419e-12
7.55814e-12
1.93167e-12
6.54216e-12
1.58274e-12
5.83471e-12
1.23872e-12
5.78288e-12
6.4796e-13
7.08418e-12
6.07444e-12
-3.96167e-13
-1.68747e-13
-2.899e-13
-1.2423e-12
2.10302e-13
6.66258e-14
7.63685e-13
1.24605e-12
1.19162e-12
1.88901e-12
1.44033e-12
2.36043e-12
1.50919e-12
2.89356e-12
1.40453e-12
3.57735e-12
1.12622e-12
4.43012e-12
6.66747e-13
5.4573e-12
1.18561e-14
6.65302e-12
-8.58953e-13
8.01217e-12
-1.96647e-12
9.51958e-12
-3.33225e-12
1.11706e-11
-4.98035e-12
1.29502e-11
-6.93067e-12
1.48426e-11
-9.2086e-12
1.68324e-11
-1.18325e-11
1.88913e-11
-1.48148e-11
2.09912e-11
-1.81755e-11
2.31047e-11
-2.19148e-11
2.51807e-11
-2.60385e-11
2.71782e-11
-3.05392e-11
2.90403e-11
-3.5402e-11
3.0703e-11
-4.06019e-11
3.20966e-11
-4.61016e-11
3.31435e-11
-5.18499e-11
3.376e-11
-5.77801e-11
3.3857e-11
-6.38082e-11
3.33415e-11
-6.98322e-11
3.21191e-11
-7.57306e-11
3.00963e-11
-8.13638e-11
2.71854e-11
-8.65699e-11
2.33042e-11
-9.11711e-11
1.8389e-11
-9.49691e-11
1.23945e-11
-9.77656e-11
5.30202e-12
-9.93374e-11
-2.90699e-12
-9.94732e-11
-1.21704e-11
-9.79525e-11
-2.2397e-11
-9.45826e-11
-3.34465e-11
-8.91958e-11
-4.51339e-11
-8.16631e-11
-5.72198e-11
-7.19087e-11
-6.9415e-11
-5.99189e-11
-8.13853e-11
-4.57561e-11
-9.27631e-11
-2.95569e-11
-1.03157e-10
-1.1555e-11
-1.12173e-10
7.96571e-12
-1.19486e-10
2.85964e-11
-1.24717e-10
4.99003e-11
-1.27618e-10
7.1387e-11
-1.28017e-10
9.25477e-11
-1.25833e-10
1.12882e-10
-1.21092e-10
1.31909e-10
-1.13922e-10
1.49201e-10
-1.04546e-10
1.64414e-10
-9.32847e-11
1.7725e-10
-8.04756e-11
1.8755e-10
-6.6574e-11
1.95198e-10
-5.19734e-11
2.00192e-10
-3.71039e-11
2.02598e-10
-2.23502e-11
2.02553e-10
-8.07498e-12
2.00259e-10
5.40892e-12
1.95943e-10
1.7831e-11
1.89868e-10
2.90378e-11
1.82297e-10
3.88969e-11
1.73519e-10
4.73112e-11
1.63799e-10
5.42737e-11
1.53403e-10
5.97879e-11
1.42569e-10
6.3915e-11
1.31517e-10
6.67315e-11
1.20439e-10
6.83399e-11
1.09503e-10
6.88607e-11
9.88498e-11
6.84187e-11
8.85929e-11
6.71468e-11
7.8829e-11
6.51665e-11
6.96238e-11
6.26127e-11
6.10275e-11
5.96022e-11
5.30753e-11
5.62371e-11
4.57812e-11
5.26321e-11
3.91473e-11
4.88699e-11
3.3168e-11
4.50294e-11
2.78278e-11
4.11771e-11
2.31e-11
3.73788e-11
1.89589e-11
3.36772e-11
1.53658e-11
3.01156e-11
1.22895e-11
2.67264e-11
9.68432e-12
2.35369e-11
7.51294e-12
2.05656e-11
5.73595e-12
1.78269e-11
4.31186e-12
1.53301e-11
3.2022e-12
1.30991e-11
2.36614e-12
1.11216e-11
1.77002e-12
9.40587e-12
1.36856e-12
7.95389e-12
1.13502e-12
6.77848e-12
1.0143e-12
5.95839e-12
8.9693e-13
5.90271e-12
5.12843e-13
7.46588e-12
6.58963e-12
-3.1206e-13
1.44855e-13
-1.3533e-13
-1.41619e-12
4.03157e-13
-4.69284e-13
1.02325e-12
6.28105e-13
1.5612e-12
1.35245e-12
1.95569e-12
1.96646e-12
2.18965e-12
2.65953e-12
2.25914e-12
3.50769e-12
2.15284e-12
4.53652e-12
1.86111e-12
5.74947e-12
1.36516e-12
7.14951e-12
6.47434e-13
8.73014e-12
-3.18634e-13
1.04853e-11
-1.55703e-12
1.24079e-11
-3.09295e-12
1.44845e-11
-4.95328e-12
1.67012e-11
-7.16056e-12
1.90379e-11
-9.74282e-12
2.14719e-11
-1.27233e-11
2.39699e-11
-1.6116e-11
2.64956e-11
-1.99394e-11
2.90025e-11
-2.42014e-11
3.1439e-11
-2.89035e-11
3.37418e-11
-3.40385e-11
3.58379e-11
-3.95878e-11
3.76459e-11
-4.55202e-11
3.90757e-11
-5.17896e-11
4.00289e-11
-5.83327e-11
4.03994e-11
-6.50672e-11
4.00751e-11
-7.18895e-11
3.89406e-11
-7.86739e-11
3.688e-11
-8.52697e-11
3.37809e-11
-9.15039e-11
2.95384e-11
-9.71772e-11
2.40627e-11
-1.02066e-10
1.72841e-11
-1.05952e-10
9.18824e-12
-1.08561e-10
-2.98556e-13
-1.09645e-10
-1.10866e-11
-1.08931e-10
-2.31111e-11
-1.06181e-10
-3.6196e-11
-1.01175e-10
-5.01386e-11
-9.37369e-11
-6.46573e-11
-8.37466e-11
-7.94047e-11
-7.11584e-11
-9.39735e-11
-5.60141e-11
-1.07908e-10
-3.84498e-11
-1.20722e-10
-1.87112e-11
-1.31911e-10
2.83134e-12
-1.41029e-10
2.57541e-11
-1.4764e-10
4.95271e-11
-1.51391e-10
7.35617e-11
-1.52053e-10
9.72487e-11
-1.4952e-10
1.19977e-10
-1.43821e-10
1.41182e-10
-1.35126e-10
1.60347e-10
-1.23709e-10
1.77052e-10
-1.09988e-10
1.91021e-10
-9.44426e-11
2.02011e-10
-7.75624e-11
2.09936e-10
-5.98971e-11
2.14819e-10
-4.19871e-11
2.16764e-10
-2.42957e-11
2.15944e-10
-7.255e-12
2.12633e-10
8.72139e-12
2.07112e-10
2.33538e-11
1.99692e-10
3.64588e-11
1.90712e-10
4.78783e-11
1.80486e-10
5.75383e-11
1.69338e-10
6.54225e-11
1.57558e-10
7.15674e-11
1.4542e-10
7.60531e-11
1.33166e-10
7.89861e-11
1.20999e-10
8.05066e-11
1.09102e-10
8.07578e-11
9.76168e-11
7.99051e-11
8.66574e-11
7.81032e-11
7.63153e-11
7.55105e-11
6.66482e-11
7.22808e-11
5.77085e-11
6.85426e-11
4.94994e-11
6.44481e-11
4.20438e-11
6.00877e-11
3.53297e-11
5.55839e-11
2.93392e-11
5.10202e-11
2.40453e-11
4.6474e-11
1.94137e-11
4.20099e-11
1.54083e-11
3.76818e-11
1.19854e-11
3.35359e-11
9.10437e-12
2.96072e-11
6.71737e-12
2.59207e-11
4.78098e-12
2.2498e-11
3.25098e-12
1.93577e-11
2.07672e-12
1.65044e-11
1.2258e-12
1.39517e-11
6.50406e-13
1.16943e-11
3.16017e-13
9.74313e-12
1.80165e-13
8.09247e-12
2.06654e-13
6.75511e-12
3.45212e-13
5.82213e-12
4.83608e-13
5.76462e-12
3.49271e-13
7.59954e-12
6.93957e-12
-2.11294e-13
3.57853e-13
7.29912e-14
-1.69807e-12
6.99449e-13
-1.09361e-12
1.42183e-12
-9.235e-14
2.08625e-12
6.8948e-13
2.63316e-12
1.4203e-12
3.03876e-12
2.25406e-12
3.28758e-12
3.25876e-12
3.36656e-12
4.45762e-12
3.2587e-12
5.85777e-12
2.94482e-12
7.46387e-12
2.40042e-12
9.27446e-12
1.59849e-12
1.12862e-11
5.14204e-13
1.34904e-11
-8.83242e-13
1.58798e-11
-2.62417e-12
1.84403e-11
-4.73918e-12
2.11515e-11
-7.2586e-12
2.39901e-11
-1.02137e-11
2.69235e-11
-1.36304e-11
2.99105e-11
-1.75308e-11
3.29012e-11
-2.19313e-11
3.58385e-11
-2.68412e-11
3.86516e-11
-3.22661e-11
4.12632e-11
-3.8196e-11
4.35761e-11
-4.46086e-11
4.54883e-11
-5.1463e-11
4.6883e-11
-5.87022e-11
4.7638e-11
-6.62466e-11
4.76191e-11
-7.39934e-11
4.66871e-11
-8.18129e-11
4.46992e-11
-8.95465e-11
4.15142e-11
-9.70063e-11
3.6998e-11
-1.03973e-10
3.10293e-11
-1.10201e-10
2.35121e-11
-1.15399e-10
1.43865e-11
-1.1931e-10
3.61283e-12
-1.21594e-10
-8.80273e-12
-1.21932e-10
-2.27728e-11
-1.20017e-10
-3.8111e-11
-1.15564e-10
-5.45908e-11
-1.08335e-10
-7.18871e-11
-9.81496e-11
-8.95901e-11
-8.49169e-11
-1.07207e-10
-6.86507e-11
-1.24175e-10
-4.94835e-11
-1.3989e-10
-2.7672e-11
-1.53723e-10
-3.65453e-12
-1.65047e-10
2.20825e-11
-1.73378e-10
4.89002e-11
-1.7821e-10
7.60826e-11
-1.79236e-10
1.02885e-10
-1.76323e-10
1.28574e-10
-1.69509e-10
1.52445e-10
-1.58996e-10
1.73908e-10
-1.4517e-10
1.92459e-10
-1.28536e-10
2.0772e-10
-1.09703e-10
2.19489e-10
-8.9331e-11
2.27688e-10
-6.80964e-11
2.32358e-10
-4.66576e-11
2.33656e-10
-2.55914e-11
2.31822e-10
-5.42008e-12
2.27212e-10
1.33315e-11
2.20172e-10
3.03942e-11
2.11095e-10
4.55366e-11
2.00369e-10
5.86047e-11
1.88386e-10
6.95222e-11
1.75509e-10
7.82995e-11
1.62081e-10
8.4994e-11
1.48402e-10
8.97316e-11
1.34734e-10
9.26524e-11
1.21307e-10
9.39333e-11
1.083e-10
9.37625e-11
9.58668e-11
9.23404e-11
8.41146e-11
8.98552e-11
7.31288e-11
8.6498e-11
6.29667e-11
8.24458e-11
5.36376e-11
7.78704e-11
4.51782e-11
7.29056e-11
3.75678e-11
6.77e-11
3.07907e-11
6.23639e-11
2.48137e-11
5.6997e-11
1.95996e-11
5.16886e-11
1.51026e-11
4.65065e-11
1.12772e-11
4.15094e-11
8.06495e-12
3.67438e-11
5.42536e-12
3.22452e-11
3.30062e-12
2.80429e-11
1.64508e-12
2.41562e-11
4.01154e-13
2.05974e-11
-4.73287e-13
1.738e-11
-1.02724e-12
1.45043e-11
-1.29946e-12
1.19687e-11
-1.33555e-12
9.77821e-12
-1.17384e-12
7.93076e-12
-8.51066e-13
6.43348e-12
-4.18847e-13
5.39089e-12
7.58087e-15
5.33538e-12
1.57251e-13
7.45132e-12
7.09593e-12
-1.06641e-13
4.66012e-13
3.1535e-13
-2.11858e-12
1.07148e-12
-1.84825e-12
1.92507e-12
-9.44353e-13
2.7394e-12
-1.23545e-13
3.45502e-12
7.05303e-13
4.04363e-12
1.6654e-12
4.48862e-12
2.81353e-12
4.76926e-12
4.17706e-12
4.86431e-12
5.7631e-12
4.75391e-12
7.57436e-12
4.40954e-12
9.61793e-12
3.80087e-12
1.18928e-11
2.8994e-12
1.43892e-11
1.67038e-12
1.71066e-11
7.92669e-14
2.003e-11
-1.91042e-12
2.31405e-11
-4.34253e-12
2.64214e-11
-7.24652e-12
2.98262e-11
-1.06612e-11
3.33236e-11
-1.46213e-11
3.68601e-11
-1.91496e-11
4.03666e-11
-2.42712e-11
4.37737e-11
-2.99954e-11
4.69881e-11
-3.63307e-11
4.99117e-11
-4.32613e-11
5.24187e-11
-5.07599e-11
5.43813e-11
-5.87747e-11
5.56527e-11
-6.72332e-11
5.60781e-11
-7.6035e-11
5.54893e-11
-8.50485e-11
5.37126e-11
-9.41079e-11
5.05729e-11
-1.0301e-10
4.58996e-11
-1.11516e-10
3.95345e-11
-1.19344e-10
3.13409e-11
-1.26172e-10
2.12149e-11
-1.31689e-10
9.13021e-12
-1.35481e-10
-5.01125e-12
-1.37173e-10
-2.10811e-11
-1.36369e-10
-3.89153e-11
-1.32706e-10
-5.82549e-11
-1.25855e-10
-7.87385e-11
-1.15561e-10
-9.9885e-11
-1.01668e-10
-1.21101e-10
-8.41414e-11
-1.41702e-10
-6.31031e-11
-1.60929e-10
-3.88386e-11
-1.77988e-10
-1.18142e-11
-1.92072e-10
1.73635e-11
-2.02556e-10
4.79179e-11
-2.08765e-10
7.89797e-11
-2.10298e-10
1.0963e-10
-2.06974e-10
1.38957e-10
-1.98835e-10
1.66114e-10
-1.8615e-10
1.90338e-10
-1.69393e-10
2.11064e-10
-1.4926e-10
2.27864e-10
-1.26502e-10
2.40504e-10
-1.0197e-10
2.48925e-10
-7.65163e-11
2.53228e-10
-5.09612e-11
2.53633e-10
-2.59949e-11
2.50484e-10
-2.27031e-12
2.44218e-10
1.95964e-11
2.35279e-10
3.93339e-11
2.24143e-10
5.66741e-11
2.11292e-10
7.14557e-11
1.9718e-10
8.36333e-11
1.8225e-10
9.32293e-11
1.66867e-10
1.00376e-10
1.51385e-10
1.05213e-10
1.36082e-10
1.07954e-10
1.21206e-10
1.0881e-10
1.06943e-10
1.08024e-10
9.34447e-11
1.05841e-10
8.08193e-11
1.02484e-10
6.91317e-11
9.81853e-11
5.84281e-11
9.3148e-11
4.87286e-11
8.75724e-11
4.00101e-11
8.1624e-11
3.2264e-11
7.54459e-11
2.54521e-11
6.91742e-11
1.95256e-11
6.29233e-11
1.44401e-11
5.67744e-11
1.01228e-11
5.08199e-11
6.52701e-12
4.5107e-11
3.57857e-12
3.96886e-11
1.2352e-12
3.45889e-11
-5.78093e-13
2.985e-11
-1.90466e-12
2.54838e-11
-2.81411e-12
2.15066e-11
-3.34687e-12
1.79149e-11
-3.55503e-12
1.47101e-11
-3.49369e-12
1.19056e-11
-3.19031e-12
9.47678e-12
-2.69237e-12
7.434e-12
-2.03844e-12
5.78271e-12
-1.27977e-12
4.63191e-12
-5.2242e-13
4.57657e-12
-5.53198e-14
6.98809e-12
7.04091e-12
-2.14481e-15
4.69103e-13
5.78768e-13
-2.69919e-12
1.49525e-12
-2.76402e-12
2.51078e-12
-1.95888e-12
3.49883e-12
-1.11086e-12
4.40451e-12
-2.00319e-13
5.19619e-12
8.73288e-13
5.85303e-12
2.15636e-12
6.35567e-12
3.67449e-12
6.6802e-12
5.43869e-12
6.79771e-12
7.4562e-12
6.68024e-12
9.73345e-12
6.29785e-12
1.22723e-11
5.61267e-12
1.50716e-11
4.5882e-12
1.81294e-11
3.18193e-12
2.14358e-11
1.34645e-12
2.49759e-11
-9.51122e-13
2.87185e-11
-3.77057e-12
3.26446e-11
-7.15152e-12
3.67035e-11
-1.11394e-11
4.08476e-11
-1.57781e-11
4.50058e-11
-2.10965e-11
4.90929e-11
-2.7126e-11
5.30179e-11
-3.38765e-11
5.66619e-11
-4.13571e-11
5.98988e-11
-4.95485e-11
6.25728e-11
-5.84139e-11
6.4519e-11
-6.78886e-11
6.55538e-11
-7.78782e-11
6.54794e-11
-8.82525e-11
6.40863e-11
-9.88403e-11
6.11596e-11
-1.09426e-10
5.6485e-11
-1.19748e-10
4.98566e-11
-1.29494e-10
4.1088e-11
-1.38303e-10
3.00254e-11
-1.45757e-10
1.65847e-11
-1.5147e-10
7.01118e-13
-1.54898e-10
-1.76549e-11
-1.55565e-10
-3.82493e-11
-1.53005e-10
-6.08164e-11
-1.46779e-10
-8.49646e-11
-1.36526e-10
-1.10139e-10
-1.21995e-10
-1.35633e-10
-1.03087e-10
-1.60611e-10
-7.98885e-11
-1.84127e-10
-5.27064e-11
-2.0517e-10
-2.2059e-11
-2.22719e-10
1.13022e-11
-2.35918e-10
4.64412e-11
-2.43905e-10
8.22817e-11
-2.46139e-10
1.17672e-10
-2.42363e-10
1.51464e-10
-2.32626e-10
1.82598e-10
-2.17283e-10
2.10206e-10
-1.97e-10
2.33536e-10
-1.72589e-10
2.52098e-10
-1.45062e-10
2.65685e-10
-1.15556e-10
2.7424e-10
-8.50681e-11
2.7795e-10
-5.46711e-11
2.77134e-10
-2.51805e-11
2.72264e-10
2.59977e-12
2.6389e-10
2.79709e-11
2.52573e-10
5.06525e-11
2.3891e-10
7.03383e-11
2.23477e-10
8.68889e-11
2.06826e-10
1.00284e-10
1.89442e-10
1.10612e-10
1.71779e-10
1.1804e-10
1.54199e-10
1.22791e-10
1.37024e-10
1.25129e-10
1.20505e-10
1.2533e-10
1.04838e-10
1.23693e-10
9.01679e-11
1.2051e-10
7.65882e-11
1.16064e-10
6.41616e-11
1.10613e-10
5.29048e-11
1.04406e-10
4.28169e-11
9.76601e-11
3.38746e-11
9.05648e-11
2.60321e-11
8.3289e-11
1.92339e-11
7.5972e-11
1.3419e-11
6.87369e-11
8.50192e-12
6.16899e-11
4.42647e-12
5.48932e-11
1.12575e-12
4.84102e-11
-1.48283e-12
4.2296e-11
-3.4887e-12
3.65974e-11
-4.92737e-12
3.12892e-11
-5.8826e-12
2.6442e-11
-6.40311e-12
2.20274e-11
-6.54936e-12
1.80596e-11
-6.37366e-12
1.45369e-11
-5.91857e-12
1.14488e-11