/*--------------------------------*- C++ -*----------------------------------*\
| =========                 |                                                 |
| \\      /  F ield         | OpenFOAM: The Open Source CFD Toolbox           |
|  \\    /   O peration     | Version:  2312                                  |
|   \\  /    A nd           | Website:  www.openfoam.com                      |
|    \\/     M anipulation  |                                                 |
\*---------------------------------------------------------------------------*/
FoamFile
{
    version     2.0;
    format      ascii;
    arch        "LSB;label=32;scalar=64";
    class       volScalarField;
    location    "0.3";
    object      p;
}
// * * * * * * * * * * * * * * * * * * * * * * * * * * * * * * * * * * * * * //

dimensions      [1 -1 -2 0 0 0 0];

internalField   nonuniform List<scalar> 
10000
(
0
-1.87038e-05
-5.48858e-05
-0.000108709
-0.000180513
-0.000270354
-0.000377985
-0.000502946
-0.000644649
-0.00080241
-0.000975452
-0.00116291
-0.00136381
-0.00157708
-0.00180149
-0.00203577
-0.0022786
-0.00252862
-0.00278438
-0.0030442
-0.00330619
-0.00356831
-0.00382847
-0.00408451
-0.00433427
-0.00457544
-0.00480562
-0.00502236
-0.00522322
-0.00540579
-0.00556767
-0.00570646
-0.00581984
-0.0059056
-0.00596177
-0.00598642
-0.00597782
-0.00593451
-0.00585539
-0.00573969
-0.00558689
-0.00539677
-0.00516939
-0.00490519
-0.00460169
-0.0042655
-0.00389464
-0.00349072
-0.00305562
-0.00259131
-0.00209962
-0.00158245
-0.00104167
-0.000479124
0.000103083
0.000702945
0.00131866
0.00194837
0.0025903
0.00324262
0.00390348
0.00457088
0.00524279
0.00591755
0.00659336
0.00726863
0.00794166
0.00861071
0.00927383
0.00992922
0.0105751
0.0112096
0.0118311
0.0124383
0.0130296
0.013604
0.0141601
0.0146969
0.0152133
0.0157085
0.0161823
0.0166336
0.0170623
0.0174678
0.0178499
0.0182082
0.018543
0.0188536
0.0191405
0.0194031
0.0196416
0.0198556
0.0200456
0.0202113
0.0203537
0.0204723
0.0205679
0.0206402
0.0206885
0.0207143
1.9225e-05
8.93147e-07
-3.52688e-05
-8.95155e-05
-0.000161905
-0.000252299
-0.000360459
-0.000485959
-0.000628236
-0.000786624
-0.000960374
-0.00114864
-0.00135044
-0.00156468
-0.00179012
-0.00202553
-0.00226963
-0.00252112
-0.00277849
-0.00304001
-0.00330376
-0.00356772
-0.00382984
-0.00408804
-0.00434012
-0.00458371
-0.00481637
-0.00503564
-0.0052391
-0.00542434
-0.00558893
-0.00573044
-0.00584656
-0.00593507
-0.00599383
-0.00602098
-0.00601467
-0.00597345
-0.00589622
-0.00578221
-0.00563083
-0.00544174
-0.00521494
-0.00495061
-0.00464881
-0.00431163
-0.00393981
-0.00353472
-0.00309821
-0.00263229
-0.00213871
-0.00161927
-0.00107599
-0.000510788
7.42657e-05
0.000677101
0.00129594
0.0019289
0.00257418
0.00322989
0.00389411
0.00456483
0.00523991
0.00591776
0.00659664
0.00727484
0.00795061
0.00862233
0.00928801
0.00994567
0.0105936
0.01123
0.011853
0.0124617
0.0130543
0.0136298
0.0141867
0.0147242
0.0152411
0.0157368
0.0162107
0.0166622
0.0170909
0.0174962
0.0178783
0.0182363
0.0185709
0.0188812
0.0191679
0.0194302
0.0196681
0.0198818
0.0200715
0.0202371
0.0203793
0.0204979
0.0205932
0.0206652
0.0207136
0.020739
5.78644e-05
3.96428e-05
3.05336e-06
-5.19366e-05
-0.000125232
-0.000216553
-0.000325725
-0.000452299
-0.000595749
-0.000755454
-0.000930695
-0.00112064
-0.00132429
-0.00154055
-0.00176823
-0.00200613
-0.00225303
-0.00250756
-0.00276817
-0.00303307
-0.00330038
-0.00356815
-0.00383443
-0.00409709
-0.00435386
-0.00460225
-0.00483979
-0.00506404
-0.00527259
-0.00546301
-0.00563283
-0.00577956
-0.00590078
-0.00599422
-0.00605767
-0.00608901
-0.00608652
-0.00604871
-0.00597444
-0.00586287
-0.00571331
-0.00552536
-0.00529896
-0.00503441
-0.00473218
-0.00439343
-0.00401938
-0.00361168
-0.00317213
-0.00270274
-0.00220532
-0.00168165
-0.00113386
-0.000563966
2.6021e-05
0.00063397
0.00125801
0.00189625
0.00254691
0.00320809
0.00387773
0.00455383
0.0052342
0.00591714
0.00660094
0.00728397
0.00796449
0.0086408
0.00931088
0.00997256
0.0106241
0.0112638
0.01189
0.0125014
0.0130967
0.0136744
0.0142332
0.0147722
0.0152904
0.0157873
0.016262
0.016714
0.0171431
0.0175485
0.0179306
0.0182886
0.0186228
0.018933
0.0192191
0.0194809
0.0197186
0.019932
0.0201215
0.0202866
0.0204285
0.0205466
0.0206415
0.0207129
0.0207612
0.0207864
0.000115777
9.71652e-05
5.98452e-05
3.94184e-06
-7.04402e-05
-0.000163048
-0.000273623
-0.000401789
-0.000547036
-0.000708788
-0.000886347
-0.00107887
-0.00128537
-0.00150477
-0.00173594
-0.00197773
-0.0022289
-0.00248802
-0.00275346
-0.00302346
-0.00329621
-0.0035699
-0.00384255
-0.00411198
-0.00437574
-0.0046313
-0.00487616
-0.00510789
-0.00532411
-0.0055223
-0.00569986
-0.00585421
-0.00598282
-0.00608327
-0.00615325
-0.0061906
-0.00619348
-0.00616038
-0.00609009
-0.0059816
-0.00583417
-0.00564736
-0.00542106
-0.00515563
-0.00485164
-0.00451011
-0.00413247
-0.00372051
-0.00327615
-0.00280136
-0.00229809
-0.00176819
-0.00121383
-0.000637154
-4.02051e-05
0.000574826
0.00120599
0.00185145
0.00250942
0.00317799
0.00385491
0.00453816
0.0052256
0.00591546
0.00660611
0.00729594
0.00798315
0.00866584
0.00934189
0.0100092
0.0106659
0.0113105
0.0119412
0.0125568
0.0131559
0.013737
0.0142987
0.0148404
0.0153608
0.0158593
0.0163355
0.0167884
0.0172183
0.0176244
0.0180066
0.0183648
0.0186987
0.0190085
0.0192945
0.0195558
0.019793
0.0200059
0.0201948
0.0203594
0.020501
0.0206186
0.0207129
0.020784
0.0208316
0.0208566
0.000192691
0.000173467
0.000135264
7.82978e-05
2.59789e-06
-9.15715e-05
-0.000203952
-0.0003342
-0.00048187
-0.000646394
-0.00082708
-0.00102308
-0.00123343
-0.00145708
-0.001693
-0.00194003
-0.00219689
-0.00246208
-0.00273396
-0.00301083
-0.00329102
-0.00357274
-0.00385398
-0.00413241
-0.00440547
-0.0046706
-0.00492533
-0.00516721
-0.00539376
-0.00560233
-0.00579018
-0.0059546
-0.00609294
-0.00620264
-0.00628124
-0.00632648
-0.00633639
-0.00630942
-0.00624417
-0.00613951
-0.00599459
-0.00580893
-0.00558241
-0.00531536
-0.00500849
-0.00466291
-0.00428021
-0.00386225
-0.00341123
-0.00292901
-0.00241774
-0.00187943
-0.00131629
-0.000730661
-0.000124672
0.000499471
0.0011398
0.00179452
0.00246176
0.00313953
0.00382554
0.00451778
0.00521424
0.00591309
0.00661269
0.0073113
0.008007
0.00869777
0.00938147
0.010056
0.0107196
0.0113705
0.0120073
0.0126285
0.0132327
0.0138183
0.014384
0.0149291
0.0154525
0.0159534
0.0164316
0.0168863
0.0173172
0.0177244
0.0181068
0.0184652
0.0187992
0.0191086
0.0193942
0.0196549
0.0198913
0.0201035
0.0202915
0.0204558
0.0205968
0.0207139
0.0208074
0.020878
0.020925
0.0209494
0.000288502
0.000268694
0.000229583
0.000171412
9.41968e-05
-1.81528e-06
-0.000116395
-0.000249237
-0.000399934
-0.00056793
-0.000752526
-0.000952896
-0.00116807
-0.00139711
-0.00163899
-0.00189256
-0.00215648
-0.00242922
-0.00270921
-0.00299484
-0.0032845
-0.00357639
-0.00386839
-0.00415804
-0.00444276
-0.00472
-0.00498726
-0.00524202
-0.00548161
-0.0057032
-0.00590394
-0.00608099
-0.00623157
-0.0063529
-0.00644235
-0.00649751
-0.00651632
-0.00649699
-0.00643797
-0.00633793
-0.00619591
-0.00601141
-0.00578429
-0.00551486
-0.005204
-0.00485302
-0.0044637
-0.00403791
-0.00357815
-0.00308629
-0.00256468
-0.00201563
-0.00144146
-0.000844649
-0.000227462
0.000407919
0.00105951
0.00172547
0.00240384
0.00309263
0.00378964
0.00449293
0.00520051
0.00591041
0.00662089
0.00733015
0.00803611
0.00873679
0.00943
0.0101136
0.0107858
0.0114448
0.0120891
0.0127173
0.0133278
0.013919
0.0144898
0.0150391
0.0155662
0.0160704
0.0165511
0.0170081
0.0174405
0.0178485
0.0182317
0.0185904
0.0189244
0.0192335
0.0195181
0.0197781
0.0200138
0.0202253
0.0204124
0.020576
0.0207161
0.0208323
0.020925
0.0209949
0.0210419
0.0210659
0.000403486
0.000383165
0.000343144
0.00028366
0.000204741
0.000106596
-1.05819e-05
-0.000146522
-0.000300825
-0.000472943
-0.000662187
-0.000867829
-0.0010888
-0.00132429
-0.00157329
-0.00183466
-0.00210702
-0.00238889
-0.00267876
-0.00297509
-0.00327628
-0.00358043
-0.00388534
-0.00418849
-0.00448733
-0.0047793
-0.00506183
-0.00533221
-0.00558758
-0.00582496
-0.00604135
-0.00623379
-0.00639928
-0.00653482
-0.00663755
-0.00670488
-0.00673459
-0.00672456
-0.00667301
-0.00657842
-0.00643972
-0.00625635
-0.00602821
-0.00575563
-0.00543964
-0.00508181
-0.00468406
-0.00424851
-0.00377761
-0.00327367
-0.00273926
-0.00217701
-0.00158945
-0.000979168
-0.000348552
0.000300216
0.000965115
0.00164424
0.00233564
0.0030374
0.00374746
0.00446383
0.00518447
0.00590737
0.00663067
0.00735253
0.0080708
0.00878336
0.00948804
0.0101826
0.0108652
0.0115341
0.0121877
0.0128242
0.0134421
0.0140399
0.0146166
0.0151712
0.0157029
0.016211
0.0166947
0.017154
0.0175883
0.0179975
0.0183815
0.0187403
0.0190739
0.0193828
0.0196667
0.019926
0.0201605
0.0203709
0.020557
0.0207197
0.0208584
0.0209737
0.0210659
0.0211351
0.0211815
0.021205
0.000538187
0.000517386
0.000476451
0.000415531
0.000334701
0.000234112
0.000113931
-2.5586e-05
-0.000184046
-0.000360894
-0.000555405
-0.000767357
-0.000994975
-0.00123794
-0.00149521
-0.00176564
-0.00204788
-0.00234052
-0.00264207
-0.00295104
-0.00326576
-0.00358425
-0.00390425
-0.00422328
-0.00453879
-0.00484819
-0.00514874
-0.00543755
-0.00571157
-0.00596767
-0.00620272
-0.00641352
-0.0065968
-0.00674932
-0.00686799
-0.00695002
-0.00699284
-0.00699385
-0.00695109
-0.00686285
-0.00672795
-0.00654576
-0.00631618
-0.00603965
-0.0057173
-0.00535095
-0.00494274
-0.00449499
-0.00401036
-0.00349169
-0.00294186
-0.00236382
-0.00176037
-0.00113423
-0.000487927
0.000176342
0.000856561
0.00155083
0.00225728
0.00297406
0.00369915
0.00443046
0.00516601
0.00590388
0.00664212
0.00737873
0.00811147
0.00883807
0.00955629
0.0102638
0.0109588
0.0116393
0.0123037
0.0129498
0.0135764
0.0141821
0.0147659
0.0153265
0.0158632
0.0163756
0.0168629
0.0173249
0.0177611
0.0181715
0.0185561
0.0189153
0.0192487
0.0195569
0.0198398
0.0200979
0.0203313
0.0205401
0.0207251
0.0208865
0.0210241
0.0211382
0.0212294
0.021298
0.021344
0.0213675
0.000693249
0.000671985
0.000630039
0.000567583
0.000484605
0.000381246
0.000257671
0.000114126
-4.90151e-05
-0.00023124
-0.00043192
-0.000650424
-0.000885788
-0.0011373
-0.00140398
-0.00168477
-0.00197838
-0.00228341
-0.00259843
-0.0029219
-0.0032521
-0.00358701
-0.00392438
-0.00426174
-0.00459655
-0.0049261
-0.00524752
-0.00555772
-0.00585348
-0.00613149
-0.00638839
-0.00662072
-0.00682492
-0.00699749
-0.00713508
-0.00723453
-0.00729295
-0.00730684
-0.00727438
-0.00719357
-0.0070631
-0.00688222
-0.00665081
-0.00636939
-0.00603925
-0.0056624
-0.00524128
-0.00477862
-0.00427734
-0.00374105
-0.00317292
-0.0025763
-0.00195429
-0.00130983
-0.000645534
3.63973e-05
0.000734009
0.00144544
0.00216889
0.00290253
0.00364443
0.00439262
0.00514517
0.00590017
0.00665557
0.0074091
0.00815847
0.00890133
0.00963531
0.010358
0.0110673
0.0117612
0.0124377
0.0130951
0.0137319
0.0143466
0.0149383
0.0155058
0.0160482
0.0165653
0.0170564
0.0175213
0.0179593
0.0183711
0.0187564
0.0191158
0.0194488
0.0197561
0.0200378
0.0202943
0.0205263
0.0207336
0.0209171
0.021077
0.0212129
0.0213258
0.0214162
0.0214839
0.0215291
0.0215522
0.000869332
0.000847634
0.000804625
0.000740423
0.000655025
0.00054858
0.000421249
0.000273259
0.000104947
-8.32157e-05
-0.000290642
-0.000516675
-0.000760563
-0.00102156
-0.00129881
-0.00159125
-0.00189768
-0.00221666
-0.00254682
-0.00288659
-0.00323423
-0.00358771
-0.00394477
-0.00430298
-0.00465974
-0.00501228
-0.00535757
-0.00569234
-0.00601315
-0.00631647
-0.00659867
-0.00685597
-0.00708455
-0.00728061
-0.00744039
-0.00756014
-0.00763615
-0.00766577
-0.00764555
-0.00757356
-0.00744835
-0.00726901
-0.00703531
-0.00674787
-0.00640818
-0.00601847
-0.0055816
-0.00510088
-0.00457977
-0.00402253
-0.00343288
-0.00281458
-0.00217119
-0.00150582
-0.000821117
-0.000119305
0.000597741
0.00132819
0.00207038
0.00282261
0.00358313
0.00435022
0.005122
0.00589634
0.00667104
0.0074438
0.00821217
0.00897357
0.00972551
0.0104654
0.0111911
0.0119004
0.012591
0.0132612
0.0139095
0.0145344
0.0151349
0.0157102
0.0162591
0.0167812
0.0172761
0.0177439
0.0181841
0.018597
0.0189829
0.0193422
0.0196747
0.0199807
0.020261
0.0205156
0.0207457
0.0209514
0.0211329
0.0212907
0.0214252
0.0215364
0.0216251
0.0216911
0.0217367
0.0217592
0.00106715
0.001045
0.00100078
0.000934609
0.000846576
0.000736766
0.000605352
0.000452524
0.000278576
8.39351e-05
-0.000130854
-0.00036519
-0.000618435
-0.000889912
-0.0011788
-0.00148407
-0.00180475
-0.0021391
-0.00248598
-0.00284383
-0.00321088
-0.00358509
-0.00396421
-0.00434583
-0.00472733
-0.00510585
-0.0054782
-0.0058409
-0.00619028
-0.00652253
-0.00683375
-0.00711987
-0.00737675
-0.00760015
-0.00778578
-0.00792929
-0.00802653
-0.00807393
-0.00806804
-0.00800655
-0.00788761
-0.00771006
-0.00747354
-0.00717873
-0.00682735
-0.006422
-0.00596608
-0.00546365
-0.00491903
-0.00433697
-0.00372206
-0.00307866
-0.00241075
-0.00172167
-0.0010141
-0.000290299
0.000447987
0.0011991
0.00196167
0.00273429
0.00351534
0.00430324
0.00509624
0.00589208
0.00668844
0.00748291
0.00827283
0.00905519
0.00982744
0.010587
0.0113313
0.0120579
0.0127646
0.0134492
0.0141104
0.0147469
0.0153575
0.0159408
0.0164966
0.0170243
0.0175235
0.0179943
0.0184365
0.0188507
0.0192367
0.0195951
0.0199265
0.0202308
0.0205093
0.0207618
0.0209894
0.0211928
0.0213723
0.0215274
0.0216596
0.0217695
0.0218573
0.0219222
0.0219654
0.0219874
0.00128728
0.00126475
0.00121913
0.00115083
0.00105992
0.000946527
0.00081074
0.00065271
0.00047269
0.000271069
4.83308e-05
-0.000195012
-0.000458431
-0.000741323
-0.00104291
-0.00136221
-0.0016981
-0.00204927
-0.00241446
-0.00279216
-0.00318057
-0.00357768
-0.00398127
-0.00438894
-0.00479809
-0.00520573
-0.00560848
-0.00600263
-0.00638429
-0.00674941
-0.00709381
-0.00741309
-0.00770262
-0.00795762
-0.00817316
-0.00834425
-0.00846618
-0.00853478
-0.00854587
-0.00849693
-0.00838549
-0.00821003
-0.00797006
-0.00766631
-0.00730072
-0.00687646
-0.0063976
-0.00586913
-0.00529646
-0.00468502
-0.0040406
-0.00336819
-0.00267227
-0.0019565
-0.00122365
-0.000475934
0.000285183
0.00105848
0.00184292
0.00263749
0.00344078
0.00425134
0.00506754
0.00588724
0.00670788
0.00752667
0.00834072
0.00914684
0.00994216
0.010724
0.0114893
0.0122354
0.0129599
0.0136609
0.0143366
0.0149858
0.015607
0.0161995
0.0167627
0.0172962
0.0177997
0.0182734
0.0187171
0.0191319
0.0195177
0.0198752
0.0202047
0.0205072
0.0207829
0.0210329
0.0212579
0.021458
0.0216347
0.0217877
0.0219177
0.0220253
0.0221109
0.0221744
0.0222163
0.0222371
0.00153058
0.00150726
0.00146026
0.00138975
0.00129585
0.00117865
0.00103824
0.000874684
0.000688207
0.00047916
0.000247936
-5.06621e-06
-0.000279419
-0.000574567
-0.00088975
-0.00122403
-0.00157636
-0.00194563
-0.00233062
-0.00272996
-0.00314164
-0.00356382
-0.00399432
-0.00443081
-0.00487061
-0.00531058
-0.00574716
-0.00617645
-0.00659442
-0.00699678
-0.00737901
-0.00773621
-0.00806321
-0.00835457
-0.00860466
-0.00880783
-0.00895859
-0.00905182
-0.00908369
-0.00904981
-0.00894739
-0.00877444
-0.00853032
-0.00821579
-0.00783305
-0.00738591
-0.00687942
-0.00631966
-0.00571349
-0.00506711
-0.00438821
-0.00368229
-0.00295453
-0.00220901
-0.00144857
-0.000675195
0.000110146
0.000906851
0.00171427
0.00253185
0.00335879
0.004194
0.00503566
0.00588168
0.00672933
0.00757534
0.00841649
0.00924954
0.010071
0.0108777
0.0116666
0.0124346
0.0131791
0.013898
0.0145898
0.0152528
0.0158857
0.016488
0.0170591
0.0175984
0.0181061
0.0185821
0.0190273
0.0194423
0.0198272
0.0201832
0.0205102
0.0208102
0.0210827
0.0213291
0.0215505
0.0217474
0.0219205
0.0220703
0.0221974
0.0223028
0.0223864
0.0224479
0.0224883
0.0225081
0.00179741
0.00177336
0.0017249
0.00165212
0.00155514
0.00143399
0.0012887
0.00111938
0.000926132
0.000709279
0.000469095
0.000205855
-8.00882e-05
-0.000388205
-0.000717769
-0.00106794
-0.00143783
-0.0018265
-0.0022328
-0.00265529
-0.00309219
-0.00354162
-0.00400156
-0.0044697
-0.00494316
-0.00541871
-0.00589266
-0.00636108
-0.00681978
-0.0072642
-0.00768932
-0.00808969
-0.00845949
-0.00879263
-0.00908275
-0.00932337
-0.00950815
-0.00963115
-0.0096872
-0.00967119
-0.00957964
-0.00940985
-0.00916084
-0.00883338
-0.00842998
-0.00795518
-0.00741526
-0.00681777
-0.00617121
-0.00548372
-0.00476413
-0.00401941
-0.00325558
-0.00247721
-0.00168705
-0.000886599
-7.61799e-05
0.000744431
0.00157538
0.00241691
0.00326885
0.00413051
0.00499995
0.00587486
0.0067524
0.00762899
0.00850068
0.0093639
0.0102148
0.0110496
0.0118649
0.0126574
0.0134239
0.0141628
0.0148718
0.0155499
0.0161954
0.0168079
0.0173869
0.0179321
0.0184439
0.0189222
0.0193683
0.0197826
0.020166
0.0205194
0.0208433
0.0211397
0.0214079
0.0216502
0.0218671
0.02206
0.0222294
0.0223756
0.0224995
0.0226019
0.0226834
0.0227429
0.0227811
0.0227999
0.00208845
0.00206371
0.00201379
0.00193875
0.00183862
0.00171341
0.00156309
0.00138773
0.00118752
0.00096257
0.000713035
0.000439091
0.000141039
-0.000180627
-0.000525264
-0.000892186
-0.00128069
-0.00168997
-0.00211895
-0.00256623
-0.00303017
-0.00350903
-0.00400091
-0.00450352
-0.00501362
-0.00552805
-0.00604319
-0.00655506
-0.0070593
-0.00755094
-0.00802441
-0.00847367
-0.00889231
-0.00927351
-0.00961005
-0.00989441
-0.0101192
-0.0102773
-0.0103621
-0.0103679
-0.0102897
-0.0101241
-0.00986949
-0.00952661
-0.00909833
-0.00859004
-0.00800959
-0.00736638
-0.00667109
-0.00593438
-0.00516673
-0.00437706
-0.00357251
-0.00275816
-0.00193654
-0.00110831
-0.000272836
0.000571376
0.00142586
0.0022919
0.00316981
0.00405947
0.00495895
0.00586575
0.00677649
0.00768719
0.00859333
0.00949055
0.0103746
0.0112411
0.0120859
0.0129056
0.0136968
0.0144575
0.0151856
0.0158797
0.0165385
0.0171615
0.0177487
0.0182994
0.0188153
0.0192948
0.0197409
0.0201539
0.0205348
0.0208846
0.0212041
0.0214958
0.0217594
0.0219968
0.0222089
0.0223967
0.0225615
0.0227033
0.0228231
0.0229214
0.0229979
0.0230553
0.0230937
0.0231119
0.0024045
0.00237911
0.00232777
0.00225045
0.00214715
0.00201779
0.00186236
0.0016809
0.00147351
0.00124024
0.000981075
0.000696101
0.000385562
4.98773e-05
-0.000310447
-0.000694907
-0.00110298
-0.00153396
-0.0019869
-0.00246052
-0.00295336
-0.00346376
-0.00398966
-0.00452994
-0.00507949
-0.00563631
-0.00619672
-0.00675668
-0.00731151
-0.00785579
-0.0083835
-0.00888807
-0.00936244
-0.00979891
-0.0101892
-0.0105246
-0.0107965
-0.0109964
-0.0111161
-0.0111483
-0.0110866
-0.0109266
-0.0106659
-0.0103048
-0.00984657
-0.00929773
-0.00866786
-0.00796883
-0.00721418
-0.00641792
-0.00559311
-0.00475129
-0.00390099
-0.00304777
-0.00219372
-0.00133814
-0.000478673
0.000387966
0.00126505
0.00215518
0.00305925
0.00397855
0.00491051
0.00585255
0.00680046
0.00774949
0.00869459
0.00963039
0.0105519
0.0114539
0.0123319
0.0131819
0.0140005
0.0147852
0.0155338
0.016245
0.016918
0.0175518
0.0181468
0.0187029
0.0192213
0.0197018
0.0201469
0.0205574
0.0209346
0.0212796
0.0215944
0.02188
0.0221374
0.0223687
0.0225748
0.0227566
0.0229158
0.0230526
0.0231679
0.0232623
0.0233363
0.0233909
0.0234268
0.0234439
0.00274642
0.0027204
0.00266765
0.00258807
0.00248156
0.00234804
0.00218747
0.00199988
0.00178526
0.00154355
0.00127462
0.00097842
0.000655138
0.000305064
-7.14664e-05
-0.000474134
-0.000902573
-0.00135624
-0.00183431
-0.00233573
-0.00285921
-0.00340323
-0.00396591
-0.00454511
-0.00513778
-0.00574082
-0.00635083
-0.00696364
-0.00757428
-0.008177
-0.00876541
-0.00933248
-0.00987035
-0.0103703
-0.0108228
-0.0112179
-0.0115455
-0.0117952
-0.0119571
-0.0120217
-0.011981
-0.0118289
-0.0115618
-0.0111794
-0.0106854
-0.0100872
-0.00939668
-0.00862882
-0.00780113
-0.00693209
-0.00603863
-0.0051361
-0.00423465
-0.00334021
-0.00245393
-0.00157297
-0.000692324
0.000193851
0.00109114
0.00200416
0.0029356
0.00388513
0.00485216
0.0058331
0.00682288
0.00781556
0.00880492
0.0097846
0.0107484
0.0116906
0.0126058
0.0134897
0.0143385
0.0151492
0.0159197
0.016649
0.0173364
0.0179811
0.0185834
0.0191437
0.0196639
0.0201444
0.0205873
0.0209938
0.0213662
0.0217051
0.0220128
0.0222914
0.0225415
0.0227656
0.0229647
0.0231402
0.0232928
0.0234236
0.0235337
0.0236238
0.0236942
0.0237457
0.0237791
0.0237949
0.00311502
0.00308839
0.00303427
0.00295242
0.00284274
0.00270511
0.00253947
0.00234579
0.00212397
0.00187381
0.00159512
0.00128761
0.000951436
0.000586713
0.000193593
-0.000227786
-0.000677234
-0.00115439
-0.00165865
-0.00218914
-0.00274476
-0.00332412
-0.00392547
-0.00454675
-0.00518537
-0.00583848
-0.0065024
-0.00717287
-0.00784477
-0.00851222
-0.00916852
-0.00980605
-0.0104161
-0.0109887
-0.0115133
-0.0119783
-0.0123718
-0.0126813
-0.0128945
-0.0129993
-0.0129857
-0.012845
-0.0125719
-0.0121651
-0.0116282
-0.0109697
-0.010204
-0.00935037
-0.00843188
-0.00747323
-0.00649615
-0.00552275
-0.00456436
-0.00362719
-0.0027106
-0.00180865
-0.000912404
-1.21046e-05
0.000901213
0.00183461
0.00279213
0.00377461
0.00478038
0.005805
0.00684231
0.00788489
0.00892481
0.00995458
0.0109667
0.0119545
0.0129114
0.0138327
0.0147146
0.0155534
0.0163473
0.0170951
0.017798
0.0184522
0.019061
0.019625
0.0201455
0.0206245
0.0210642
0.0214652
0.0218305
0.0221619
0.0224615
0.0227314
0.0229728
0.0231883
0.0233791
0.0235465
0.0236914
0.0238155
0.0239196
0.0240044
0.0240704
0.0241185
0.0241494
0.0241637
0.00351115
0.00348392
0.00342844
0.00334439
0.00323163
0.00309001
0.00291945
0.00271982
0.00249093
0.00223241
0.00194389
0.00162522
0.00127613
0.00089665
0.000486743
4.63435e-05
-0.000424571
-0.000925854
-0.0014571
-0.00201766
-0.00260661
-0.00322282
-0.00386484
-0.00453088
-0.00521866
-0.00592533
-0.00664746
-0.00738052
-0.00811951
-0.00885852
-0.00959052
-0.0103072
-0.010999
-0.0116549
-0.0122629
-0.0128099
-0.0132817
-0.0136631
-0.0139391
-0.0140946
-0.014116
-0.0139919
-0.0137144
-0.0132801
-0.0126918
-0.0119593
-0.0110999
-0.0101384
-0.00910549
-0.00803476
-0.00695572
-0.00589852
-0.00487689
-0.00389706
-0.00295518
-0.00204034
-0.00113763
-0.000231521
0.000691525
0.00164167
0.00262455
0.00364173
0.00469047
0.00576473
0.00685658
0.00795661
0.00905481
0.0101423
0.0112095
0.0122486
0.0132524
0.0142153
0.0151332
0.0160021
0.0168201
0.0175892
0.0183047
0.0189691
0.0195834
0.0201497
0.0206695
0.0211451
0.0215788
0.0219725
0.0223292
0.0226507
0.0229401
0.0231995
0.0234307
0.0236359
0.0238169
0.023975
0.0241114
0.0242275
0.0243246
0.0244034
0.0244645
0.0245089
0.0245369
0.0245494
0.00393561
0.0039078
0.00385102
0.00376488
0.0036492
0.0035038
0.00332853
0.00312318
0.00288741
0.00262074
0.00232268
0.00199285
0.00163097
0.00123681
0.000810126
0.000350608
-0.000142007
-0.000667783
-0.00122652
-0.00181778
-0.00244101
-0.00309543
-0.00378002
-0.00449327
-0.00523311
-0.00599685
-0.00678113
-0.007582
-0.00839428
-0.0092121
-0.0100282
-0.0108334
-0.0116176
-0.0123687
-0.0130734
-0.0137164
-0.0142812
-0.0147496
-0.0151029
-0.0153223
-0.0153898
-0.0152903
-0.0150116
-0.0145471
-0.013898
-0.0130747
-0.012098
-0.0109997
-0.00982058
-0.00860691
-0.00740239
-0.00624462
-0.00515322
-0.00413361
-0.00317628
-0.00226205
-0.00136695
-0.000467494
0.000455839
0.00141715
0.00242455
0.00347869
0.00457587
0.00570745
0.0068628
0.00802987
0.00919599
0.01035
0.0114804
0.0125775
0.0136339
0.0146426
0.0155994
0.0165009
0.017345
0.0181321
0.0188617
0.0195351
0.0201538
0.0207202
0.0212366
0.0217065
0.0221322
0.0225161
0.0228622
0.023172
0.0234495
0.0236965
0.0239154
0.0241085
0.0242779
0.024425
0.0245515
0.0246587
0.0247479
0.0248198
0.0248754
0.0249156
0.0249404
0.0249512
0.00438921
0.00436086
0.00430288
0.00421482
0.00409644
0.00394752
0.00376782
0.00355703
0.00331468
0.00304014
0.00273281
0.00239216
0.00201779
0.00160926
0.00116604
0.000687553
0.000173289
-0.000377004
-0.000963358
-0.00158571
-0.00224394
-0.00293779
-0.00366657
-0.00442909
-0.00522354
-0.00604757
-0.00689824
-0.00777182
-0.00866378
-0.00956787
-0.0104769
-0.011381
-0.0122693
-0.0131291
-0.0139454
-0.0147009
-0.0153763
-0.0159501
-0.0163991
-0.0166998
-0.016829
-0.0167654
-0.0164916
-0.0159958
-0.0152758
-0.0143416
-0.0132176
-0.011944
-0.0105755
-0.00917714
-0.00781247
-0.00653346
-0.00536648
-0.00431469
-0.00335889
-0.00246671
-0.00160083
-0.000726463
0.000183969
0.00114986
0.00218005
0.00327484
0.00442785
0.00562699
0.00685762
0.00810391
0.00934988
0.0105811
0.0117841
0.0129474
0.0140624
0.0151215
0.0161203
0.0170564
0.017926
0.0187319
0.0194744
0.020155
0.0207756
0.02134
0.0218506
0.0223122
0.0227272
0.0230988
0.0234313
0.0237269
0.0239895
0.0242219
0.0244262
0.0246053
0.0247612
0.024896
0.0250109
0.025108
0.0251882
0.0252524
0.0253017
0.025337
0.0253585
0.0253674
0.00487272
0.00484389
0.00478485
0.00469507
0.00457426
0.00442213
0.00423836
0.0040225
0.00377395
0.00349196
0.00317581
0.00282487
0.00243856
0.00201621
0.00155696
0.00105993
0.000524413
-5.00659e-05
-0.000663884
-0.00131747
-0.00201126
-0.00274541
-0.00351958
-0.00433292
-0.00518413
-0.00607145
-0.00699248
-0.00794387
-0.00892109
-0.00991897
-0.0109309
-0.0119444
-0.0129496
-0.0139329
-0.014878
-0.0157652
-0.0165723
-0.0172737
-0.0178417
-0.0182465
-0.0184582
-0.0184476
-0.0181896
-0.0176646
-0.0168643
-0.015796
-0.0144865
-0.012986
-0.0113686
-0.00972629
-0.00815234
-0.0067251
-0.00547839
-0.00441013
-0.00348453
-0.00264812
-0.00184381
-0.00102088
-0.000141046
0.000820886
0.00187382
0.00301557
0.00423543
0.00551623
0.00683752
0.00817841
0.00951878
0.0108401
0.0121264
0.0133647
0.0145449
0.0156604
0.0167046
0.0176747
0.018571
0.019395
0.0201481
0.0208335
0.0214536
0.0220129
0.0225149
0.0229643
0.0233648
0.0237207
0.0240365
0.0243151
0.0245605
0.0247756
0.0249628
0.0251251
0.0252657
0.0253864
0.0254885
0.0255741
0.0256443
0.0257001
0.0257425
0.0257722
0.0257898
0.0257967
0.00538687
0.00535765
0.00529771
0.00520644
0.0050835
0.00492853
0.0047411
0.00452065
0.00426642
0.00397757
0.00365329
0.00329282
0.00289536
0.00245991
0.0019854
0.00147061
0.000914613
0.000316574
-0.000324324
-0.00100908
-0.00173859
-0.00251338
-0.00333353
-0.00419875
-0.00510849
-0.00606172
-0.00705661
-0.00809032
-0.0091586
-0.0102553
-0.0113835
-0.0125161
-0.0136518
-0.0147751
-0.0158682
-0.0169093
-0.0178729
-0.0187295
-0.0194455
-0.0199842
-0.0203068
-0.020374
-0.0201492
-0.0196046
-0.0187169
-0.0174886
-0.0159462
-0.0141501
-0.0121995
-0.0102269
-0.00837398
-0.00676155
-0.00543472
-0.00437976
-0.00353175
-0.00280322
-0.00210733
-0.00137158
-0.000544105
0.000404369
0.00148187
0.0026814
0.00398453
0.00536623
0.00679839
0.00825345
0.00970624
0.0111332
0.0125154
0.0138385
0.0150907
0.0162699
0.0173595
0.0183654
0.0192877
0.0201282
0.0208897
0.0215762
0.022192
0.0227418
0.0232308
0.0236645
0.0240468
0.0243832
0.0246786
0.0249367
0.0251619
0.0253569
0.0255228
0.0256671
0.0257906
0.0258953
0.0259832
0.0260558
0.0261146
0.0261609
0.0261956
0.0262192
0.0262328
0.0262374
0.00593227
0.00590275
0.00584208
0.00574956
0.00562484
0.00546746
0.0052769
0.00505245
0.00479325
0.00449835
0.00416685
0.00379782
0.00339017
0.0029426
0.00245375
0.00192254
0.00134715
0.000726388
5.9063e-05
-0.000656355
-0.00142117
-0.00223629
-0.00310241
-0.00402005
-0.00498955
-0.00601063
-0.00708217
-0.00820217
-0.00936763
-0.0105743
-0.0118175
-0.0130848
-0.0143663
-0.0156476
-0.0169102
-0.0181305
-0.0192801
-0.0203249
-0.0212252
-0.0219361
-0.0224083
-0.0225898
-0.0224296
-0.0218827
-0.0209059
-0.019493
-0.0176611
-0.0154779
-0.0130741
-0.0106429
-0.00840576
-0.00655782
-0.00515926
-0.00417163
-0.00347799
-0.00293633
-0.00241559
-0.00181451
-0.00106506
-0.000138187
0.000971169
0.00224625
0.00365671
0.00516604
0.00673648
0.00833106
0.00991777
0.0114691
0.0129618
0.0143798
0.0157182
0.0169559
0.0180964
0.0191391
0.0200858
0.0209398
0.0217059
0.0223891
0.0229955
0.0235315
0.0240027
0.0244153
0.0247746
0.0250868
0.0253576
0.0255916
0.0257936
0.0259606
0.0261066
0.0262301
0.0263343
0.0264211
0.0264929
0.0265511
0.0265975
0.0266332
0.0266592
0.0266763
0.0266854
0.0266876
0.00650942
0.00647969
0.00641844
0.00632497
0.00619885
0.00603959
0.00584654
0.00561885
0.00535555
0.00505562
0.00471801
0.00434156
0.00392489
0.00346644
0.0029646
0.00241781
0.00182526
0.00118272
0.000490098
-0.000254832
-0.00105378
-0.00190825
-0.00281975
-0.00378975
-0.00481942
-0.00590934
-0.00705934
-0.00826861
-0.00953544
-0.0108567
-0.0122274
-0.0136388
-0.0150811
-0.0165392
-0.0179946
-0.0194226
-0.020792
-0.0220646
-0.023194
-0.0241263
-0.0247999
-0.0251467
-0.0250949
-0.0245725
-0.0235296
-0.021917
-0.0197332
-0.0170444
-0.014015
-0.0109286
-0.00814237
-0.00598869
-0.00454482
-0.00372051
-0.00330483
-0.00306801
-0.00281605
-0.00241345
-0.00176765
-0.000862897
0.000295651
0.00167575
0.00322982
0.00490434
0.00664847
0.00841482
0.0101625
0.0118596
0.0134802
0.0150089
0.0164298
0.0177371
0.018929
0.0200071
0.020975
0.0218384
0.0226035
0.0232781
0.0238692
0.0243845
0.0248318
0.0252179
0.0255493
0.0258323
0.0260733
0.0262779
0.0264461
0.026592
0.0267131
0.0268132
0.0268955
0.0269623
0.0270159
0.0270581
0.0270906
0.0271146
0.0271312
0.0271413
0.0271456
0.0271453
0.0071186
0.00708875
0.00702712
0.006933
0.00680597
0.00664544
0.00645065
0.00622064
0.00595431
0.00565054
0.00530809
0.00492554
0.00450127
0.00403351
0.00352039
0.00295988
0.00234951
0.00168868
0.000972862
0.00020036
-0.000630881
-0.00152311
-0.00247877
-0.00350022
-0.0045895
-0.00574818
-0.0069774
-0.00827782
-0.00964922
-0.01109
-0.0125966
-0.0141627
-0.0157796
-0.017434
-0.019107
-0.0207738
-0.0224018
-0.0239486
-0.0253618
-0.0265776
-0.0275209
-0.0281055
-0.0282353
-0.0278096
-0.0267321
-0.0249222
-0.0223261
-0.0189854
-0.0150842
-0.0110341
-0.00742827
-0.00486928
-0.00344301
-0.00295084
-0.00301104
-0.0032518
-0.00339006
-0.00324332
-0.00273845
-0.00184802
-0.000605725
0.000927094
0.00267761
0.00456984
0.0065345
0.00851243
0.0104537
0.0123211
0.0140896
0.0157356
0.0172508
0.0186295
0.019872
0.0209824
0.0219665
0.0228331
0.0235908
0.0242489
0.0248175
0.0253056
0.0257219
0.0260746
0.0263714
0.0266194
0.0268258
0.0269945
0.0271346
0.027249
0.0273408
0.0274143
0.0274719
0.0275163
0.0275499
0.0275746
0.0275921
0.0276034
0.0276097
0.0276123
0.0276114
0.0276083
0.00775997
0.00773005
0.00766825
0.00757387
0.00744647
0.0072854
0.00708976
0.00685848
0.00659035
0.00628408
0.00593821
0.00555113
0.00512101
0.0046459
0.00412362
0.00355174
0.00292754
0.00224856
0.00151189
0.000714314
-0.000146831
-0.00107466
-0.00207247
-0.00314347
-0.00429067
-0.0055169
-0.00682486
-0.00821683
-0.0096944