/*--------------------------------*- C++ -*----------------------------------*\
| =========                 |                                                 |
| \\      /  F ield         | OpenFOAM: The Open Source CFD Toolbox           |
|  \\    /   O peration     | Version:  2312                                  |
|   \\  /    A nd           | Website:  www.openfoam.com                      |
|    \\/     M anipulation  |                                                 |
\*---------------------------------------------------------------------------*/
FoamFile
{
    version     2.0;
    format      ascii;
    arch        "LSB;label=32;scalar=64";
    class       surfaceScalarField;
    location    "0.3";
    object      phi;
}
// * * * * * * * * * * * * * * * * * * * * * * * * * * * * * * * * * * * * * //

dimensions      [0 3 -1 0 0 0 0];

oriented        oriented;

internalField   nonuniform List<scalar> 
19800
(
-2.36435e-13
2.01444e-13
-1.44325e-12
1.20799e-12
-2.7569e-12
1.31543e-12
-3.52215e-12
7.66059e-13
-3.79559e-12
2.72961e-13
-3.83315e-12
3.63416e-14
-3.8319e-12
-2.33963e-15
-3.88422e-12
5.19013e-14
-4.02994e-12
1.46059e-13
-4.27785e-12
2.48865e-13
-4.63222e-12
3.5575e-13
-5.09424e-12
4.63474e-13
-5.66414e-12
5.70823e-13
-6.3452e-12
6.80829e-13
-7.13706e-12
7.90355e-13
-8.04139e-12
9.02318e-13
-9.06009e-12
1.01743e-12
-1.01934e-11
1.13366e-12
-1.14423e-11
1.2507e-12
-1.28062e-11
1.36588e-12
-1.4281e-11
1.47587e-12
-1.58585e-11
1.57694e-12
-1.75247e-11
1.66467e-12
-1.92619e-11
1.73529e-12
-2.10471e-11
1.78364e-12
-2.28519e-11
1.80362e-12
-2.46417e-11
1.78911e-12
-2.63766e-11
1.73439e-12
-2.80117e-11
1.63487e-12
-2.94963e-11
1.4843e-12
-3.0775e-11
1.27839e-12
-3.17828e-11
1.0076e-12
-3.24622e-11
6.79671e-13
-3.27483e-11
2.86839e-13
-3.25756e-11
-1.72131e-13
-3.18866e-11
-6.89146e-13
-3.06172e-11
-1.27041e-12
-2.87108e-11
-1.90727e-12
-2.61209e-11
-2.58981e-12
-2.28277e-11
-3.29206e-12
-1.87977e-11
-4.02846e-12
-1.40293e-11
-4.76716e-12
-8.53307e-12
-5.49534e-12
-2.33773e-12
-6.19462e-12
4.49623e-12
-6.83355e-12
1.1913e-11
-7.41762e-12
1.98149e-11
-7.90383e-12
2.80914e-11
-8.27776e-12
3.6617e-11
-8.52467e-12
4.52526e-11
-8.63301e-12
5.38509e-11
-8.59494e-12
6.22625e-11
-8.40906e-12
7.03396e-11
-8.07574e-12
7.79425e-11
-7.60126e-12
8.49418e-11
-6.99768e-12
9.12235e-11
-6.28013e-12
9.66926e-11
-5.46734e-12
1.01273e-10
-4.57955e-12
1.04915e-10
-3.64203e-12
1.07593e-10
-2.67712e-12
1.093e-10
-1.70656e-12
1.10053e-10
-7.52243e-13
1.09886e-10
1.68201e-13
1.08853e-10
1.03397e-12
1.07021e-10
1.83062e-12
1.0447e-10
2.55039e-12
1.01284e-10
3.18504e-12
9.75553e-11
3.72886e-12
9.33754e-11
4.17969e-12
8.88372e-11
4.53843e-12
8.40314e-11
4.80713e-12
7.9041e-11
4.99093e-12
7.3946e-11
5.09646e-12
6.88195e-11
5.12951e-12
6.37222e-11
5.09827e-12
5.87119e-11
5.01073e-12
5.38342e-11
4.87676e-12
4.9131e-11
4.70422e-12
4.46308e-11
4.50015e-12
4.0353e-11
4.27564e-12
3.63217e-11
4.03332e-12
3.25413e-11
3.77957e-12
2.90198e-11
3.52161e-12
2.57508e-11
3.26646e-12
2.27405e-11
3.01456e-12
1.99697e-11
2.7694e-12
1.74427e-11
2.53024e-12
1.51426e-11
2.29888e-12
1.30705e-11
2.07464e-12
1.12097e-11
1.86084e-12
9.54974e-12
1.66282e-12
8.07069e-12
1.4818e-12
6.74927e-12
1.32327e-12
5.55944e-12
1.18973e-12
4.47796e-12
1.08217e-12
3.47675e-12
9.99377e-13
2.53334e-12
9.42221e-13
1.60411e-12
9.33046e-13
6.12961e-13
9.92531e-13
6.17861e-13
8.38802e-13
-6.36371e-13
7.63888e-13
1.28594e-12
-3.32663e-13
2.41321e-12
-1.45668e-12
1.8894e-12
-2.19968e-12
1.01433e-12
-2.64664e-12
4.81993e-13
-2.96475e-12
3.15519e-13
-3.27887e-12
3.66863e-13
-3.66109e-12
5.29929e-13
-4.15934e-12
7.49241e-13
-4.79927e-12
9.9782e-13
-5.59984e-12
1.26541e-12
-6.57998e-12
1.55072e-12
-7.74769e-12
1.84661e-12
-9.11454e-12
2.15467e-12
-1.06873e-11
2.47366e-12
-1.2471e-11
2.80195e-12
-1.44713e-11
3.13664e-12
-1.66899e-11
3.47206e-12
-1.91249e-11
3.80189e-12
-2.17692e-11
4.11879e-12
-2.46084e-11
4.41343e-12
-2.76219e-11
4.67527e-12
-3.07815e-11
4.89258e-12
-3.40508e-11
5.05124e-12
-3.73847e-11
5.13623e-12
-4.07287e-11
5.13203e-12
-4.40186e-11
5.02353e-12
-4.71813e-11
4.79709e-12
-5.01354e-11
4.43801e-12
-5.27903e-11
3.9333e-12
-5.50527e-11
3.27071e-12
-5.68142e-11
2.44236e-12
-5.7975e-11
1.44845e-12
-5.84292e-11
2.8179e-13
-5.80684e-11
-1.05137e-12
-5.67936e-11
-2.5465e-12
-5.45149e-11
-4.18577e-12
-5.11561e-11
-5.9467e-12
-4.66488e-11
-7.79697e-12
-4.09625e-11
-9.71288e-12
-3.40803e-11
-1.16479e-11
-2.60186e-11
-1.35558e-11
-1.68242e-11
-1.5389e-11
-6.58256e-12
-1.70765e-11
4.61415e-12
-1.86164e-11
1.66131e-11
-1.99042e-11
2.92477e-11
-2.09109e-11
4.2318e-11
-2.15901e-11
5.56054e-11
-2.1915e-11
6.88756e-11
-2.18609e-11
8.18953e-11
-2.14255e-11
9.4432e-11
-2.06101e-11
1.06264e-10
-1.94302e-11
1.17185e-10
-1.79162e-11
1.27015e-10
-1.61083e-11
1.35604e-10
-1.40551e-11
1.42845e-10
-1.18197e-11
1.48647e-10
-9.44334e-12
1.52968e-10
-6.99845e-12
1.55804e-10
-4.54136e-12
1.57182e-10
-2.12827e-12
1.57151e-10
1.99714e-13
1.55798e-10
2.3853e-12
1.53226e-10
4.40152e-12
1.49556e-10
6.21979e-12
1.44921e-10
7.81974e-12
1.39458e-10
9.19002e-12
1.33313e-10
1.03254e-11
1.26624e-10
1.12277e-11
1.19531e-10
1.19038e-11
1.12161e-10
1.23639e-11
1.04635e-10
1.26244e-11
9.70649e-11
1.27025e-11
8.95441e-11
1.26192e-11
8.21616e-11
1.23942e-11
7.49862e-11
1.20517e-11
6.80798e-11
1.16113e-11
6.14892e-11
1.10931e-11
5.52467e-11
1.05164e-11
4.93823e-11
9.89878e-12
4.39074e-11
9.25274e-12
3.88365e-11
8.59522e-12
3.41627e-11
7.93688e-12
2.98893e-11
7.2921e-12
2.59994e-11
6.65866e-12
2.24902e-11
6.04355e-12
1.93375e-11
5.44974e-12
1.65355e-11
4.88083e-12
1.40557e-11
4.34401e-12
1.18748e-11
3.84554e-12
9.9635e-12
3.39388e-12
8.29069e-12
2.99686e-12
6.8191e-12
2.66123e-12
5.5186e-12
2.38665e-12
4.34745e-12
2.17142e-12
3.26652e-12
2.02874e-12
2.18322e-12
2.0233e-12
9.22101e-13
2.25763e-12
1.53904e-12
1.02367e-12
-1.65826e-12
2.04207e-12
2.69896e-13
2.05409e-12
2.40177e-12
1.44194e-12
2.50103e-12
6.87661e-13
1.76798e-12
-3.02003e-15
1.17258e-12
-6.17895e-13
9.30962e-13
-1.21422e-12
9.64301e-13
-1.85367e-12
1.17103e-12
-2.58767e-12
1.48543e-12
-3.4572e-12
1.86967e-12
-4.49436e-12
2.30416e-12
-5.72303e-12
2.77952e-12
-7.16413e-12
3.28652e-12
-8.83588e-12
3.82511e-12
-1.07497e-11
4.38735e-12
-1.29125e-11
4.96615e-12
-1.53339e-11
5.55986e-12
-1.80164e-11
6.15545e-12
-2.09553e-11
6.7399e-12
-2.41428e-11
7.30424e-12
-2.75629e-11
7.83148e-12
-3.11928e-11
8.30385e-12
-3.50023e-11
8.70102e-12
-3.89522e-11
8.99989e-12
-4.29935e-11
9.17601e-12
-4.70672e-11
9.20434e-12
-5.11041e-11
9.05981e-12
-5.50244e-11
8.71746e-12
-5.87394e-11
8.15345e-12
-6.21495e-11
7.34426e-12
-6.51487e-11
6.271e-12
-6.76246e-11
4.91918e-12
-6.94589e-11
3.28285e-12
-7.05271e-11
1.34882e-12
-7.07072e-11
-8.72937e-13
-6.9883e-11
-3.37156e-12
-6.79507e-11
-6.11754e-12
-6.48146e-11
-9.08093e-12
-6.04008e-11
-1.22087e-11
-5.46604e-11
-1.54517e-11
-4.75679e-11
-1.8739e-11
-3.9132e-11
-2.19907e-11
-2.94005e-11
-2.51208e-11
-1.84372e-11
-2.80416e-11
-6.40434e-12
-3.0651e-11
6.58228e-12
-3.28907e-11
2.0318e-11
-3.46439e-11
3.45834e-11
-3.58508e-11
4.91301e-11
-3.64572e-11
6.36957e-11
-3.64236e-11
7.8016e-11
-3.57433e-11
9.18253e-11
-3.44181e-11
1.04873e-10
-3.24772e-11
1.16929e-10
-2.99714e-11
1.2779e-10
-2.69689e-11
1.37285e-10
-2.35493e-11
1.4528e-10
-1.98146e-11
1.517e-10
-1.58631e-11
1.56491e-10
-1.17905e-11
1.59647e-10
-7.6974e-12
1.612e-10
-3.6805e-12
1.61211e-10
1.88017e-13
1.59786e-10
3.80959e-12
1.57031e-10
7.15456e-12
1.53091e-10
1.01581e-11
1.48108e-10
1.27989e-11
1.42243e-10
1.50527e-11
1.35654e-10
1.69163e-11
1.28493e-10
1.83901e-11
1.2091e-10
1.94887e-11
1.13049e-10
2.02274e-11
1.05037e-10
2.06382e-11
9.69965e-11
2.0745e-11
8.90306e-11
2.0587e-11
8.12328e-11
2.0197e-11
7.36765e-11
1.96106e-11
6.64276e-11
1.88604e-11
5.95356e-11
1.79856e-11
5.30414e-11
1.70108e-11
4.697e-11
1.59694e-11
4.13372e-11
1.4883e-11
3.61583e-11
1.3775e-11
3.14255e-11
1.26669e-11
2.71428e-11
1.15762e-11
2.32907e-11
1.05107e-11
1.9859e-11
9.47402e-12
1.68219e-11
8.48514e-12
1.41571e-11
7.54553e-12
1.18331e-11
6.66395e-12
9.8279e-12
5.85248e-12
8.10317e-12
5.12129e-12
6.63337e-12
4.47341e-12
5.37694e-12
3.91738e-12
4.30962e-12
3.45478e-12
3.39538e-12
3.08907e-12
2.5833e-12
2.83804e-12
1.78219e-12
2.82599e-12
7.96803e-13
3.2476e-12
2.34323e-12
4.79878e-13
-2.13651e-12
1.54525e-12
-7.93844e-13
2.20304e-12
1.74447e-12
2.23333e-12
2.47094e-12
1.87949e-12
2.12226e-12
1.36067e-12
1.69214e-12
7.76431e-13
1.51611e-12
1.43187e-13
1.5987e-12
-5.59105e-13
1.87508e-12
-1.36498e-12
2.29376e-12
-2.30768e-12
2.81496e-12
-3.42164e-12
3.41984e-12
-4.7325e-12
4.09068e-12
-6.26386e-12
4.81719e-12
-8.03507e-12
5.59576e-12
-1.00603e-11
6.4129e-12
-1.23559e-11
7.26244e-12
-1.49243e-11
8.12835e-12
-1.7771e-11
9.00093e-12
-2.08963e-11
9.86327e-12
-2.42894e-11
1.06958e-11
-2.79356e-11
1.14773e-11
-3.1814e-11
1.21824e-11
-3.5895e-11
1.27817e-11
-4.014e-11
1.32435e-11
-4.44996e-11
1.3534e-11
-4.89145e-11
1.36183e-11
-5.33146e-11
1.34601e-11
-5.76195e-11
1.30232e-11
-6.17372e-11
1.22722e-11
-6.55658e-11
1.11737e-11
-6.89933e-11
9.69921e-12
-7.18984e-11
7.82456e-12
-7.41534e-11
5.53717e-12
-7.56341e-11
2.82776e-12
-7.61992e-11
-3.09427e-13
-7.57216e-11
-3.84943e-12
-7.40821e-11
-7.75574e-12
-7.11757e-11
-1.19852e-11
-6.6914e-11
-1.64681e-11
-6.12339e-11
-2.11304e-11
-5.41016e-11
-2.58706e-11
-4.55176e-11
-3.05745e-11
-3.552e-11
-3.51195e-11
-2.41966e-11
-3.9367e-11
-1.16544e-11
-4.3194e-11
1.91676e-12
-4.64601e-11
1.63307e-11
-4.90541e-11
3.13431e-11
-5.08584e-11
4.66849e-11
-5.17951e-11
6.20701e-11
-5.18067e-11
7.72073e-11
-5.08797e-11
9.18065e-11
-4.90178e-11
1.05592e-10
-4.6264e-11
1.18312e-10
-4.26924e-11
1.29747e-10
-3.8403e-11
1.39717e-10
-3.35188e-11
1.48076e-10
-2.8175e-11
1.54738e-10
-2.25265e-11
1.59658e-10
-1.67118e-11
1.62836e-10
-1.08763e-11
1.64311e-10
-5.15493e-12
1.6416e-10
3.3893e-13
1.62495e-10
5.4733e-12
1.59454e-10
1.01916e-11
1.55177e-10
1.44315e-11
1.49828e-10
1.81455e-11
1.43578e-10
2.13023e-11
1.36598e-10
2.38984e-11
1.2905e-10
2.5939e-11
1.21096e-10
2.74439e-11
1.12883e-10
2.84435e-11
1.04546e-10
2.89768e-11
9.62102e-11
2.90845e-11
8.79794e-11
2.88202e-11
7.99525e-11
2.82273e-11
7.22008e-11
2.73631e-11
6.47896e-11
2.62731e-11
5.77737e-11
2.5002e-11
5.11861e-11
2.35995e-11
4.50547e-11
2.21005e-11
3.93956e-11
2.05404e-11
3.42137e-11
1.89557e-11
2.95108e-11
1.73687e-11
2.52796e-11
1.58071e-11
2.15059e-11
1.42826e-11
1.81563e-11
1.2818e-11
1.52198e-11
1.14172e-11
1.26696e-11
1.00958e-11
1.04679e-11
8.86484e-12
8.58717e-12
7.7358e-12
6.99264e-12
6.71697e-12
5.65636e-12
5.81642e-12
4.53702e-12
5.03597e-12
3.61436e-12
4.38048e-12
2.84878e-12
3.85726e-12
2.19137e-12
3.49647e-12
1.55148e-12
3.47078e-12
7.15917e-13
4.08207e-12
3.06227e-12
-9.91334e-15
-2.12539e-12
6.82429e-13
-1.48499e-12
1.47516e-12
9.52546e-13
1.90481e-12
2.04221e-12
1.93839e-12
2.08972e-12
1.71338e-12
1.91804e-12
1.32907e-12
1.90114e-12
8.29618e-13
2.09914e-12
2.14949e-13
2.49148e-12
-5.29359e-13
3.04049e-12
-1.42996e-12
3.71788e-12
-2.51244e-12
4.5036e-12
-3.79986e-12
5.37815e-12
-5.31934e-12
6.33611e-12
-7.08759e-12
7.36359e-12
-9.12302e-12
8.44808e-12
-1.14357e-11
9.57433e-12
-1.40418e-11
1.07326e-11
-1.69448e-11
1.19016e-11
-2.01423e-11
1.30593e-11
-2.36301e-11
1.41839e-11
-2.73964e-11
1.52453e-11
-3.14226e-11
1.62101e-11
-3.56819e-11
1.7041e-11
-4.01368e-11
1.76973e-11
-4.47394e-11
1.81356e-11
-4.94308e-11
1.83099e-11
-5.41419e-11
1.81722e-11
-5.87912e-11
1.76737e-11
-6.32846e-11
1.67662e-11
-6.75164e-11
1.54058e-11
-7.13678e-11
1.35507e-11
-7.47116e-11
1.1168e-11
-7.741e-11
8.23422e-12
-7.93233e-11
4.73928e-12
-8.03067e-11
6.72995e-13
-8.02139e-11
-3.94134e-12
-7.89065e-11
-9.06078e-12
-7.62642e-11
-1.46252e-11
-7.21809e-11
-2.05498e-11
-6.65785e-11
-2.67322e-11
-5.94083e-11
-3.30411e-11
-5.06587e-11
-3.93252e-11
-4.0363e-11
-4.54167e-11
-2.85978e-11
-5.11338e-11
-1.55052e-11
-5.62863e-11
-1.22177e-12
-6.07403e-11
1.39952e-11
-6.42667e-11
2.9891e-11
-6.67503e-11
4.6169e-11
-6.80704e-11
6.2522e-11
-6.81594e-11
7.86159e-11
-6.69749e-11
9.413e-11
-6.45336e-11
1.08758e-10
-6.08935e-11
1.22221e-10
-5.6156e-11
1.34276e-10
-5.04578e-11
1.44722e-10
-4.3966e-11
1.53425e-10
-3.68802e-11
1.6028e-10
-2.93847e-11
1.65242e-10
-2.16737e-11
1.68332e-10
-1.39665e-11
1.69599e-10
-6.42251e-12
1.69139e-10
7.98533e-13
1.67075e-10
7.53553e-12
1.63559e-10
1.37047e-11
1.58765e-10
1.92236e-11
1.52878e-10
2.40322e-11
1.46076e-10
2.81044e-11
1.3855e-10
3.14257e-11
1.30473e-10
3.40164e-11
1.22019e-10
3.58996e-11
1.13341e-10
3.7123e-11
1.04582e-10
3.77359e-11
9.58681e-11
3.77995e-11
8.73128e-11
3.73767e-11
7.9001e-11
3.65406e-11
7.1018e-11
3.53473e-11
6.34239e-11
3.38706e-11
5.6261e-11
3.21667e-11
4.95691e-11
3.02904e-11
4.3372e-11
2.82975e-11
3.76803e-11
2.62323e-11
3.24976e-11
2.41378e-11
2.7819e-11
2.2048e-11
2.36302e-11
1.99921e-11
1.99126e-11
1.79964e-11
1.66475e-11
1.60797e-11
1.38039e-11
1.42556e-11
1.13546e-11
1.25449e-11
9.2628e-12
1.09559e-11
7.4982e-12
9.50194e-12
6.02641e-12
8.18988e-12
4.81159e-12
7.02801e-12
3.82089e-12
6.02159e-12
3.0318e-12
5.17456e-12
2.39996e-12
4.49237e-12
1.87737e-12
4.01813e-12
1.36897e-12
3.98426e-12
6.52414e-13
4.7989e-12
3.70893e-12
-2.51305e-13
-1.87319e-12
1.41245e-13
-1.87654e-12
8.78915e-13
2.15882e-13
1.47221e-12
1.45003e-12
1.77292e-12
1.78992e-12
1.81034e-12
1.88112e-12
1.65103e-12
2.06079e-12
1.33014e-12
2.4208e-12
8.60295e-13
2.96287e-12
2.33129e-13
3.66961e-12
-5.68399e-13
4.52092e-12
-1.56725e-12
5.50294e-12
-2.78594e-12
6.59643e-12
-4.2444e-12
7.79386e-12
-5.96287e-12
9.08129e-12
-7.96097e-12
1.04449e-11
-1.02588e-11
1.187e-11
-1.28662e-11
1.33374e-11
-1.5788e-11
1.48216e-11
-1.90304e-11
1.63021e-11
-2.25928e-11
1.77488e-11
-2.6466e-11
1.91216e-11
-3.06359e-11
2.0382e-11
-3.50788e-11
2.14841e-11
-3.97599e-11
2.2378e-11
-4.46337e-11
2.30096e-11
-4.96435e-11
2.33208e-11
-5.47207e-11
2.32504e-11
-5.97828e-11
2.2736e-11
-6.47329e-11
2.17161e-11
-6.94597e-11
2.01323e-11
-7.38387e-11
1.79295e-11
-7.77333e-11
1.50617e-11
-8.09924e-11
1.14918e-11
-8.34682e-11
7.21382e-12
-8.49942e-11
2.19939e-12
-8.54018e-11
-3.53144e-12
-8.45332e-11
-9.92657e-12
-8.22474e-11
-1.69094e-11
-7.84142e-11
-2.43829e-11
-7.29317e-11
-3.22154e-11
-6.57313e-11
-4.02428e-11
-5.67852e-11
-4.82734e-11
-4.61158e-11
-5.60878e-11
-3.37929e-11
-6.34573e-11
-1.99373e-11
-7.01404e-11
-4.78764e-12
-7.58863e-11
1.14689e-11
-8.05193e-11
2.85163e-11
-8.37953e-11
4.60239e-11
-8.55774e-11
6.36317e-11
-8.57686e-11
8.09712e-11
-8.43171e-11
9.76747e-11
-8.12391e-11
1.13395e-10
-7.66148e-11
1.27813e-10
-7.05754e-11
1.40659e-10
-6.33042e-11
1.51715e-10
-5.50238e-11
1.60818e-10
-4.59853e-11
1.67871e-10
-3.6439e-11
1.72866e-10
-2.66685e-11
1.75799e-10
-1.69001e-11
1.76749e-10
-7.3728e-12
1.75829e-10
1.71812e-12
1.73206e-10
1.01587e-11
1.69049e-10
1.78613e-11
1.63556e-10
2.47158e-11
1.56937e-10
3.06519e-11
1.49399e-10
3.56418e-11
1.41145e-10
3.96811e-11
1.3237e-10
4.27915e-11
1.23258e-10
4.50122e-11
1.13975e-10
4.64054e-11
1.04668e-10
4.70392e-11
9.5468e-11
4.69971e-11
8.64906e-11
4.63563e-11
7.783e-11
4.52028e-11
6.9554e-11
4.36253e-11
6.17285e-11
4.16975e-11
5.43961e-11
3.95013e-11
4.75853e-11
3.71011e-11
4.13112e-11
3.457e-11
3.55861e-11
3.19587e-11
3.04041e-11
2.93192e-11
2.57581e-11
2.66947e-11
2.16274e-11
2.412e-11
1.79906e-11
2.16289e-11
1.4825e-11
1.92433e-11
1.20941e-11
1.69857e-11
9.76507e-12
1.48732e-11
7.80877e-12
1.29092e-11
6.18527e-12
1.11249e-11
4.86181e-12
9.51515e-12
3.80086e-12
8.09023e-12
2.96817e-12
6.85221e-12
2.33853e-12
5.81018e-12
1.86444e-12
4.96679e-12
1.50446e-12
4.38134e-12
1.14811e-12
4.34072e-12
5.70651e-13
5.38103e-12
4.28015e-12
-2.89557e-13
-1.58291e-12
-2.48658e-14
-2.14057e-12
6.39263e-13
-4.4752e-13
1.29523e-12
7.94737e-13
1.75479e-12
1.33075e-12
1.9913e-12
1.6447e-12
2.02965e-12
2.02264e-12
1.89028e-12
2.56092e-12
1.58234e-12
3.2721e-12
1.09867e-12
4.15456e-12
4.24399e-13
5.19588e-12
-4.61385e-13
6.38862e-12
-1.57726e-12
7.71171e-12
-2.94732e-12
9.16315e-12
-4.59225e-12
1.07251e-11
-6.53527e-12
1.23861e-11
-8.79311e-12
1.41255e-11
-1.13802e-11
1.59225e-11
-1.43137e-11
1.7755e-11
-1.75975e-11
1.95883e-11
-2.12352e-11
2.13903e-11
-2.52242e-11
2.3114e-11
-2.95559e-11
2.47157e-11
-3.42102e-11
2.61391e-11
-3.91563e-11
2.73248e-11
-4.43527e-11
2.8207e-11
-4.97456e-11
2.87146e-11
-5.52674e-11
2.87723e-11
-6.08348e-11
2.83028e-11
-6.63481e-11
2.72287e-11
-7.16908e-11
2.54747e-11
-7.67315e-11
2.29699e-11
-8.13223e-11
1.96516e-11
-8.53019e-11
1.54703e-11
-8.84881e-11
1.04e-11
-9.07073e-11
4.42045e-12
-9.17716e-11
-2.46435e-12
-9.14879e-11
-1.02085e-11
-8.96838e-11
-1.87138e-11
-8.61992e-11
-2.78692e-11
-8.09012e-11
-3.75152e-11
-7.36947e-11
-4.74509e-11
-6.45301e-11
-5.74399e-11
-5.34097e-11
-6.72094e-11
-4.03995e-11
-7.64669e-11
-2.56423e-11
-8.48954e-11
-9.33219e-12
-9.21934e-11
8.23676e-12
-9.80861e-11
2.67581e-11
-1.02317e-10
4.58403e-11
-1.04661e-10
6.50686e-11
-1.04999e-10
8.40135e-11
-1.03265e-10
1.02247e-10
-9.94742e-11
1.19366e-10
-9.37346e-11
1.35005e-10
-8.62147e-11
1.48851e-10
-7.71513e-11
1.60663e-10
-6.68372e-11
1.70266e-10
-5.55879e-11
1.77578e-10
-4.37514e-11
1.82556e-10
-3.1648e-11
1.85251e-10
-1.95954e-11
1.85762e-10
-7.88264e-12
1.84243e-10
3.23872e-12
1.80878e-10
1.35257e-11
1.75881e-10
2.28584e-11
1.69486e-10
3.11108e-11
1.61928e-10
3.82093e-11
1.53446e-10
4.41233e-11
1.44269e-10
4.88582e-11
1.34614e-10
5.24463e-11
1.24675e-10
5.49479e-11
1.14636e-10
5.64425e-11
1.04653e-10
5.70226e-11
9.48593e-11
5.67892e-11
8.53708e-11
5.5846e-11
7.62785e-11
5.42953e-11
6.76564e-11
5.22471e-11
5.95561e-11
4.97958e-11
5.2022e-11
4.70357e-11
4.50725e-11
4.40539e-11
3.87155e-11
4.09249e-11
3.29603e-11
3.7717e-11
2.77912e-11
3.44885e-11
2.31926e-11
3.12908e-11
1.91426e-11
2.81692e-11
1.56144e-11
2.51562e-11
1.25712e-11
2.22839e-11
9.98735e-12
1.95703e-11
7.81962e-12
1.70387e-11
6.02874e-12
1.47013e-11
4.57938e-12
1.25719e-11
3.4393e-12
1.06589e-11
2.56451e-12
8.96492e-12
1.92656e-12
7.4957e-12
1.48749e-12
6.25592e-12
1.20644e-12
5.2494e-12
1.03712e-12
4.551e-12
8.7347e-13
4.50863e-12
4.6627e-13
5.78945e-12
4.73793e-12
-2.34289e-13
-1.34816e-12
2.35546e-14
-2.39844e-12
6.73576e-13
-1.09747e-12
1.37665e-12
9.17558e-14
1.95391e-12
7.53567e-13
2.35086e-12
1.24791e-12
2.56599e-12
1.808e-12
2.60452e-12
2.52331e-12
2.46505e-12
3.41269e-12
2.1387e-12
4.48183e-12
1.60928e-12
5.72569e-12
8.61913e-13
7.1359e-12
-1.30479e-13
8.70376e-12
-1.38926e-12
1.04214e-11
-2.93942e-12
1.22743e-11
-4.80223e-12
1.42475e-11
-7.00381e-12
1.63256e-11
-9.56278e-12
1.84811e-11
-1.24919e-11
2.06857e-11
-1.58124e-11
2.29119e-11
-1.95268e-11
2.51082e-11
-2.36433e-11
2.72333e-11
-2.8156e-11
2.92301e-11
-3.30506e-11
3.10348e-11
-3.83024e-11
3.25779e-11
-4.38751e-11
3.37808e-11
-4.97189e-11
3.45587e-11
-5.57681e-11
3.48209e-11
-6.19393e-11
3.44731e-11
-6.81306e-11
3.34196e-11
-7.42209e-11
3.1565e-11
-8.0071e-11
2.88195e-11
-8.55189e-11
2.50986e-11
-9.03855e-11
2.03367e-11
-9.44704e-11
1.44863e-11
-9.75732e-11
7.52569e-12
-9.9471e-11
-5.6501e-13
-9.99474e-11
-9.73256e-12
-9.87802e-11
-1.98833e-11
-9.57723e-11
-3.08796e-11
-9.07519e-11
-4.25375e-11
-8.35857e-11
-5.46183e-11
-7.41939e-11
-6.6833e-11
-6.25573e-11
-7.88466e-11
-4.87331e-11
-9.02902e-11
-3.28556e-11
-1.00771e-10
-1.5156e-11
-1.09892e-10
4.08283e-12
-1.17325e-10
2.4454e-11
-1.22689e-10
4.55214e-11
-1.2573e-10
6.67948e-11
-1.26274e-10
8.7764e-11
-1.24236e-10
1.07929e-10
-1.1964e-10
1.26805e-10
-1.12611e-10
1.43964e-10
-1.03373e-10
1.59059e-10
-9.22469e-11
1.71792e-10
-7.95704e-11
1.82003e-10
-6.57982e-11
1.89576e-10
-5.13257e-11
1.94511e-10
-3.65829e-11
1.96872e-10
-2.19555e-11
1.96798e-10
-7.80705e-12
1.94489e-10
5.54917e-12
1.90174e-10
1.78422e-11
1.84113e-10
2.89195e-11
1.76574e-10
3.86502e-11
1.67845e-10
4.69384e-11
1.58191e-10
5.3777e-11
1.47878e-10
5.91708e-11
1.37142e-10
6.31818e-11
1.26201e-10
6.58878e-11
1.15248e-10
6.73936e-11
1.04454e-10
6.78205e-11
9.39524e-11
6.72906e-11
8.3857e-11
6.59386e-11
7.42628e-11
6.38883e-11
6.52369e-11
6.12724e-11
5.68262e-11
5.82071e-11
4.9063e-11
5.47971e-11
4.19642e-11
5.11546e-11
3.55266e-11
4.73612e-11
2.97482e-11
4.34978e-11
2.46091e-11
3.96305e-11
2.00827e-11
3.58201e-11
1.61401e-11
3.21112e-11
1.27478e-11
2.8547e-11
9.86876e-12
2.51605e-11
7.46238e-12
2.19766e-11
5.48427e-12
1.90133e-11
3.9018e-12
1.62868e-11
2.66959e-12
1.37996e-11
1.74749e-12
1.15799e-11
1.09642e-12
9.61316e-12
6.87159e-13
7.90908e-12
4.70861e-13
6.46969e-12
4.16625e-13
5.30342e-12
4.73823e-13
4.49227e-12
5.3425e-13
4.44854e-12
3.31297e-13
5.99235e-12
5.07228e-12
-1.46934e-13
-1.20124e-12
1.8536e-13
-2.73155e-12
8.78203e-13
-1.7908e-12
1.653e-12
-6.83133e-13
2.34514e-12
6.16973e-14
2.89275e-12
7.00923e-13
3.27794e-12
1.42374e-12
3.49567e-12
2.30673e-12
3.53363e-12
3.37594e-12
3.3812e-12
4.63529e-12
3.01963e-12
6.08796e-12
2.42858e-12
7.72733e-12
1.58352e-12
9.54898e-12
4.59189e-13
1.15457e-11
-9.71422e-13
1.37046e-11
-2.73639e-12
1.60121e-11
-4.85935e-12
1.84486e-11
-7.36849e-12
2.09913e-11
-1.02878e-11
2.36071e-11
-1.36328e-11
2.62595e-11
-1.74241e-11
2.89019e-11
-2.16717e-11
3.14826e-11
-2.63784e-11
3.39382e-11
-3.1538e-11
3.61958e-11
-3.71326e-11
3.8174e-11
-4.31327e-11
3.97819e-11
-4.94937e-11
4.09197e-11
-5.61533e-11
4.148e-11
-6.30298e-11
4.13491e-11
-7.00201e-11
4.04098e-11
-7.69991e-11
3.85438e-11
-8.38169e-11
3.56367e-11
-9.02999e-11
3.15813e-11
-9.62477e-11
2.62854e-11
-1.01435e-10
1.9676e-11
-1.05642e-10
1.17335e-11
-1.08598e-10
2.39022e-12
-1.10043e-10
-8.2904e-12
-1.09705e-10
-2.02244e-11
-1.0734e-10
-3.32461e-11
-1.02725e-10
-4.71535e-11
-9.56779e-11
-6.16663e-11
-8.60738e-11
-7.64377e-11
-7.38612e-11
-9.10596e-11
-5.90764e-11
-1.05075e-10
-4.18523e-11
-1.17995e-10
-2.24321e-11
-1.29313e-10
-1.18256e-12
-1.38576e-10
2.14724e-11
-1.45346e-10
4.50042e-11
-1.49264e-10
6.88236e-11
-1.50095e-10
9.23201e-11
-1.47733e-10
1.14881e-10
-1.422e-10
1.35938e-10
-1.33667e-10
1.54973e-10
-1.22407e-10
1.71563e-10
-1.08837e-10
1.85431e-10
-9.34386e-11
1.96334e-10
-7.67018e-11
2.04186e-10
-5.91773e-11
2.0901e-10
-4.14063e-11
2.1091e-10
-2.38544e-11
2.10061e-10
-6.95571e-12
2.06733e-10
8.87671e-12
2.01212e-10
2.3364e-11
1.93809e-10
3.63235e-11
1.84863e-10
4.75975e-11
1.74688e-10
5.71133e-11
1.63609e-10
6.48563e-11
1.51917e-10
7.0864e-11
1.39883e-10
7.52177e-11
1.27748e-10
7.8025e-11
1.15716e-10
7.94265e-11
1.03966e-10
7.95686e-11
9.26401e-11
7.8617e-11
8.18521e-11
7.67249e-11
7.16876e-11
7.40519e-11
6.22071e-11
7.07525e-11
5.34625e-11
6.69539e-11
4.54501e-11
6.28073e-11
3.8196e-11
5.84067e-11
3.16865e-11
5.38719e-11
2.59045e-11
4.92836e-11
2.08148e-11
4.47195e-11
1.63894e-11
4.02448e-11
1.25871e-11
3.59117e-11
9.3703e-12
3.17644e-11
6.68942e-12
2.78388e-11
4.5037e-12
2.41613e-11
2.76453e-12
2.07481e-11
1.42636e-12
1.76215e-11
4.46128e-13
1.47827e-11
-2.1793e-13
1.22415e-11
-6.07333e-13
9.9991e-12
-7.54072e-13
8.06308e-12
-7.08762e-13
6.42333e-12
-5.05345e-13
5.09934e-12
-1.88549e-13
4.18244e-12
1.27964e-13
4.14395e-12
1.70373e-13
5.94724e-12
5.24191e-12
-4.30252e-14
-1.15878e-12
4.0186e-13
-3.17768e-12
1.18816e-12
-2.57762e-12
2.07048e-12
-1.56527e-12
2.89433e-12
-7.61454e-13
3.59959e-12
-3.38921e-15
4.16176e-12
8.62668e-13
4.56451e-12
1.90526e-12
4.79371e-12
3.14818e-12
4.83145e-12
4.59894e-12
4.65799e-12
6.26254e-12
4.24814e-12
8.13794e-12
3.57497e-12
1.02227e-11
2.6125e-12
1.25087e-11
1.32886e-12
1.49889e-11
-3.07578e-13
1.76494e-11
-2.32945e-12
2.04716e-11
-4.76666e-12
2.34299e-11
-7.65157e-12
2.64935e-11
-1.10118e-11
2.96211e-11
-1.48715e-11
3.27626e-11
-1.92489e-11
3.58609e-11
-2.41547e-11
3.88452e-11
-2.95956e-11
4.16384e-11
-3.55631e-11
4.41431e-11
-4.20368e-11
4.62565e-11
-4.89777e-11
4.78606e-11
-5.63297e-11
4.88315e-11
-6.40144e-11
4.90333e-11
-7.19297e-11
4.83245e-11
-7.99466e-11
4.65602e-11
-8.7907e-11
4.35968e-11
-9.56229e-11
3.92978e-11
-1.02874e-10
3.35385e-11
-1.09416e-10
2.62187e-11
-1.14956e-10
1.72735e-11
-1.19229e-10
6.6606e-12
-1.21901e-10
-5.62207e-12
-1.22642e-10
-1.94861e-11
-1.2114e-10
-3.47488e-11
-1.17107e-10
-5.11864e-11
-1.10298e-10
-6.84759e-11
-1.00528e-10
-8.62081e-11
-8.76986e-11
-1.0389e-10
-7.18173e-11
-1.20956e-10
-5.30124e-11
-1.368e-10
-3.15371e-11
-1.50789e-10
-7.8254e-12
-1.62288e-10
1.76354e-11
-1.70807e-10
4.42077e-11
-1.75837e-10
7.11746e-11
-1.77063e-10
9.77892e-11
-1.74346e-10
1.23315e-10
-1.67724e-10
1.47044e-10
-1.57394e-10
1.68381e-10
-1.43744e-10
1.8682e-10
-1.27276e-10
2.01985e-10
-1.08604e-10
2.13669e-10
-8.83867e-11
2.21796e-10
-6.73043e-11
2.26408e-10
-4.60175e-11
2.27659e-10
-2.51046e-11
2.25793e-10
-5.08945e-12
2.21166e-10
1.35042e-11
2.14126e-10
3.0406e-11
2.05066e-10
4.53855e-11
1.94375e-10
5.82894e-11
1.82447e-10
6.90435e-11
1.69643e-10
7.76611e-11
1.56309e-10
8.42006e-11
1.42739e-10
8.87872e-11
1.29198e-10
9.15651e-11
1.15916e-10
9.27119e-11
1.03066e-10
9.24168e-11
9.08007e-11
9.08826e-11
7.92297e-11
8.8297e-11
6.84322e-11
8.48485e-11
5.84655e-11
8.07173e-11
4.93404e-11
7.60776e-11
4.10892e-11
7.10578e-11
3.36895e-11
6.5807e-11
2.71232e-11
6.04362e-11
2.13616e-11
5.50444e-11
1.63588e-11
4.97187e-11
1.20736e-11
4.45253e-11
8.45479e-12
3.95256e-11
5.4532e-12
3.47655e-11
3.01974e-12
3.02737e-11
1.0967e-12
2.60835e-11
-3.57395e-13
2.22099e-11
-1.40733e-12
1.86663e-11
-2.09156e-12
1.54665e-11
-2.45605e-12
1.26084e-11
-2.54224e-12
1.00875e-11
-2.39503e-12
7.91716e-12
-2.05019e-12
6.08699e-12
-1.55015e-12
4.60034e-12
-9.39958e-13
3.56742e-12
-3.28876e-13
3.52796e-12
-1.56357e-14
5.63337e-12
5.22918e-12
6.50139e-14
-1.22467e-12
6.53554e-13
-3.76726e-12
1.57542e-12
-3.49961e-12
2.59433e-12
-2.58367e-12
3.57378e-12
-1.74017e-12
4.45335e-12
-8.82233e-13
5.20446e-12
1.12419e-13
5.80957e-12
1.30139e-12
6.24698e-12
2.71237e-12
6.49455e-12
4.35294e-12
6.53188e-12
6.22636e-12
6.33026e-12
8.34029e-12
5.85908e-12
1.06945e-11
5.08865e-12
1.32801e-11
3.98248e-12
1.60966e-11
2.50409e-12
1.91294e-11
6.18705e-13
2.23585e-11
-1.72054e-12
2.57703e-11
-4.54396e-12
2.93177e-11
-7.89198e-12
3.29696e-11
-1.18012e-11
3.66721e-11
-1.62962e-11
4.03566e-11
-2.14034e-11
4.39536e-11
-2.71335e-11
4.73702e-11
-3.34969e-11
5.05082e-11
-4.04805e-11
5.32408e-11
-4.8059e-11
5.54387e-11
-5.61821e-11
5.69535e-11
-6.47784e-11
5.76283e-11
-7.37482e-11
5.72932e-11
-8.2961e-11
5.57724e-11
-9.22517e-11
5.28878e-11
-1.01418e-10
4.84655e-11
-1.1022e-10
4.23427e-11
-1.18379e-10
3.43777e-11
-1.25569e-10
2.44617e-11
-1.31475e-10
1.25628e-11
-1.35682e-10
-1.41798e-12
-1.37807e-10
-1.73626e-11
-1.37449e-10
-3.51061e-11
-1.34241e-10
-5.43951e-11
-1.27846e-10
-7.48706e-11
-1.18003e-10
-9.60525e-11
-1.04545e-10
-1.17347e-10
-8.74346e-11
-1.38067e-10
-6.67847e-11
-1.5745e-10
-4.28764e-11
-1.74697e-10
-1.61728e-11
-1.88991e-10
1.27201e-11
-1.997e-10
4.30266e-11
-2.06143e-10
7.38747e-11
-2.0791e-10
1.04343e-10
-2.04813e-10
1.33514e-10
-1.96893e-10
1.60535e-10
-1.84414e-10
1.84641e-10
-1.67851e-10
2.05263e-10
-1.47899e-10
2.21971e-10
-1.25312e-10
2.34529e-10
-1.00946e-10
2.42878e-10
-7.56541e-11
2.47123e-10
-5.02614e-11
2.47479e-10
-2.54606e-11
2.44294e-10
-1.90462e-12
2.3801e-10
1.97896e-11
2.29069e-10
3.9349e-11
2.17949e-10
5.65066e-11
2.05135e-10
7.11046e-11
1.91082e-10
8.30992e-11
1.7623e-10
9.25144e-11
1.60945e-10
9.94844e-11
1.45581e-10
1.0415e-10
1.30413e-10
1.0673e-10
1.1569e-10
1.07436e-10
1.01598e-10
1.06511e-10
8.82792e-11
1.042e-10
7.58439e-11
1.0073e-10
6.43569e-11
9.63325e-11
5.38636e-11
9.12104e-11
4.43767e-11
8.55621e-11
3.58765e-11
7.95542e-11
2.83515e-11
7.33299e-11
2.17602e-11
6.70225e-11
1.60567e-11
6.07473e-11
1.11883e-11
5.45846e-11
7.09155e-12
4.86239e-11
3.71036e-12
4.29103e-11
9.74144e-13
3.74975e-11
-1.1573e-12
3.24112e-11
-2.7671e-12
2.76852e-11
-3.89232e-12
2.33388e-11
-4.60646e-12
1.93798e-11
-4.94856e-12
1.58075e-11
-4.96972e-12
1.26264e-11
-4.71634e-12
9.84319e-12
-4.23252e-12
7.43018e-12
-3.55875e-12
5.40378e-12
-2.73118e-12
3.77051e-12
-1.79207e-12
2.63982e-12
-8.64695e-13
2.60391e-12
-2.26092e-13
4.99455e-12
5.00393e-12
1.7582e-13
-1.40129e-12
9.27711e-13
-4.51957e-12
2.01566e-12
-4.58732e-12
3.20256e-12
-3.77017e-12
4.36124e-12
-2.8987e-12
5.43704e-12
-1.95797e-12
6.39768e-12
-8.47765e-13
7.22147e-12
4.78746e-13
7.88796e-12
2.04742e-12
8.37249e-12
3.8697e-12
8.64601e-12
5.95356e-12
8.68042e-12
8.3063e-12
8.44511e-12
1.09306e-11
7.90092e-12
1.38257e-11
7.00965e-12
1.69896e-11
5.72788e-12
2.04129e-11
4.00664e-12
2.40811e-11
1.81301e-12
2.79649e-11
-9.13738e-13
3.2045e-11
-4.21639e-12
3.62724e-11
-8.14165e-12
4.05974e-11
-1.27351e-11
4.49504e-11
-1.80268e-11
4.92466e-11
-2.405e-11
5.33953e-11
-3.08175e-11
5.72772e-11
-3.83413e-11
6.07646e-11
-4.66048e-11
6.37007e-11
-5.55725e-11
6.59189e-11
-6.51806e-11
6.72345e-11
-7.53362e-11
6.74477e-11
-8.59105e-11
6.63464e-11
-9.67338e-11
6.37121e-11
-1.07592e-10
5.93256e-11
-1.18224e-10
5.29762e-11
-1.28319e-10
4.44722e-11
-1.37513e-10
3.36542e-11
-1.45384e-10
2.04315e-11
-1.51545e-10
4.74129e-12
-1.55441e-10
-1.34678e-11
-1.56594e-10
-3.39527e-11
-1.5453e-10
-5.64587e-11
-1.48804e-10
-8.05968e-11
-1.39043e-10
-1.05813e-10
-1.24989e-10
-1.31402e-10
-1.06533e-10
-1.56524e-10
-8.37538e-11
-1.80229e-10
-5.69515e-11
-2.01498e-10
-2.66408e-11
-2.193e-10
6.42689e-12
-2.32767e-10
4.13174e-11
-2.41033e-10
7.69492e-11
-2.43541e-10
1.12165e-10
-2.40028e-10
1.45813e-10
-2.3054e-10
1.76824e-10
-2.15426e-10
2.04325e-10
-1.95353e-10
2.2756e-10
-1.71135e-10
2.46036e-10
-1.4379e-10
2.59545e-10
-1.14456e-10
2.68028e-10
-8.41376e-11
2.71676e-10
-5.39093e-11
2.7081e-10
-2.45938e-11
2.659e-10
3.00509e-12
2.57503e-10
2.81871e-11
2.4618e-10
5.06723e-11
2.32533e-10
7.01553e-11
2.17137e-10
8.65004e-11
2.00547e-10
9.96906e-11
1.83247e-10
1.09813e-10
1.65687e-10
1.17041e-10
1.48234e-10
1.21602e-10
1.31206e-10
1.23758e-10
1.14852e-10
1.23789e-10
9.93658e-11
1.21996e-10
8.48897e-11
1.18673e-10
7.15152e-11
1.14102e-10
5.9303e-11
1.08542e-10
4.82686e-11
1.02243e-10
3.84067e-11
9.54189e-11
2.96954e-11
8.82608e-11
2.20845e-11
8.0937e-11
1.55182e-11
7.35857e-11
9.93632e-12
6.63297e-11
5.24444e-12
5.92687e-11
1.39519e-12
5.24686e-11
-1.68379e-12
4.59907e-11
-4.07459e-12
3.98868e-11
-5.86949e-12
3.4205e-11
-7.09894e-12
2.89151e-11
-7.85207e-12
2.40915e-11
-8.1761e-12
1.97035e-11
-8.12745e-12
1.57623e-11
-7.76673e-12
1.22631e-11
-7.12564e-12