/*--------------------------------*- C++ -*----------------------------------*\
| =========                 |                                                 |
| \\      /  F ield         | OpenFOAM: The Open Source CFD Toolbox           |
|  \\    /   O peration     | Version:  2312                                  |
|   \\  /    A nd           | Website:  www.openfoam.com                      |
|    \\/     M anipulation  |                                                 |
\*---------------------------------------------------------------------------*/
FoamFile
{
    version     2.0;
    format      ascii;
    arch        "LSB;label=32;scalar=64";
    class       volVectorField;
    location    "0.3";
    object      U;
}
// * * * * * * * * * * * * * * * * * * * * * * * * * * * * * * * * * * * * * //

dimensions      [0 1 -1 0 0 0 0];

internalField   nonuniform List<vector> 
10000
(
(4.02325e-08 1.3827e-07 0)
(-2.5043e-07 2.76576e-07 0)
(-8.74554e-07 2.22101e-07 0)
(-1.31737e-06 9.67228e-08 0)
(-1.49839e-06 2.28237e-08 0)
(-1.54108e-06 -3.72209e-09 0)
(-1.5356e-06 -3.70502e-10 0)
(-1.53933e-06 1.31829e-08 0)
(-1.57631e-06 2.80392e-08 0)
(-1.65467e-06 4.23642e-08 0)
(-1.77529e-06 5.61134e-08 0)
(-1.93845e-06 6.89638e-08 0)
(-2.14482e-06 8.07004e-08 0)
(-2.3951e-06 9.22547e-08 0)
(-2.68945e-06 1.03667e-07 0)
(-3.02837e-06 1.14727e-07 0)
(-3.4127e-06 1.25885e-07 0)
(-3.84301e-06 1.36842e-07 0)
(-4.31969e-06 1.47977e-07 0)
(-4.84254e-06 1.58809e-07 0)
(-5.41065e-06 1.68814e-07 0)
(-6.02166e-06 1.77491e-07 0)
(-6.67129e-06 1.84473e-07 0)
(-7.35334e-06 1.89402e-07 0)
(-8.05944e-06 1.91696e-07 0)
(-8.77922e-06 1.90445e-07 0)
(-9.50034e-06 1.84876e-07 0)
(-1.0208e-05 1.74415e-07 0)
(-1.0885e-05 1.58291e-07 0)
(-1.15122e-05 1.36127e-07 0)
(-1.20683e-05 1.07345e-07 0)
(-1.25304e-05 7.21744e-08 0)
(-1.28726e-05 2.9992e-08 0)
(-1.30695e-05 -2.04327e-08 0)
(-1.30978e-05 -7.91626e-08 0)
(-1.293e-05 -1.44458e-07 0)
(-1.25402e-05 -2.18754e-07 0)
(-1.19079e-05 -3.00928e-07 0)
(-1.10168e-05 -3.88003e-07 0)
(-9.84257e-06 -4.74344e-07 0)
(-8.37477e-06 -5.67229e-07 0)
(-6.61473e-06 -6.59586e-07 0)
(-4.55855e-06 -7.50219e-07 0)
(-2.221e-06 -8.37726e-07 0)
(3.90526e-07 -9.18006e-07 0)
(3.25195e-06 -9.90705e-07 0)
(6.32167e-06 -1.05069e-06 0)
(9.56409e-06 -1.09574e-06 0)
(1.29318e-05 -1.12443e-06 0)
(1.63719e-05 -1.13514e-06 0)
(1.98267e-05 -1.12703e-06 0)
(2.32369e-05 -1.09983e-06 0)
(2.65426e-05 -1.05343e-06 0)
(2.96861e-05 -9.88672e-07 0)
(3.26133e-05 -9.07267e-07 0)
(3.52751e-05 -8.11114e-07 0)
(3.76301e-05 -7.02578e-07 0)
(3.96437e-05 -5.83693e-07 0)
(4.12902e-05 -4.5907e-07 0)
(4.25547e-05 -3.30794e-07 0)
(4.34313e-05 -2.0179e-07 0)
(4.39221e-05 -7.49187e-08 0)
(4.40369e-05 4.68877e-08 0)
(4.37934e-05 1.61288e-07 0)
(4.32165e-05 2.67148e-07 0)
(4.23355e-05 3.6267e-07 0)
(4.11833e-05 4.4675e-07 0)
(3.97954e-05 5.18608e-07 0)
(3.82087e-05 5.78089e-07 0)
(3.64603e-05 6.2535e-07 0)
(3.45869e-05 6.6062e-07 0)
(3.26233e-05 6.84628e-07 0)
(3.06022e-05 6.98287e-07 0)
(2.85543e-05 7.02281e-07 0)
(2.65064e-05 6.97764e-07 0)
(2.44821e-05 6.85807e-07 0)
(2.25021e-05 6.67575e-07 0)
(2.0584e-05 6.43999e-07 0)
(1.87409e-05 6.16426e-07 0)
(1.69841e-05 5.86599e-07 0)
(1.53223e-05 5.53865e-07 0)
(1.37595e-05 5.19623e-07 0)
(1.22987e-05 4.84889e-07 0)
(1.09406e-05 4.50614e-07 0)
(9.68483e-06 4.17207e-07 0)
(8.5286e-06 3.84905e-07 0)
(7.46889e-06 3.53927e-07 0)
(6.50382e-06 3.2402e-07 0)
(5.63027e-06 2.94964e-07 0)
(4.84434e-06 2.6697e-07 0)
(4.14092e-06 2.40709e-07 0)
(3.51428e-06 2.16644e-07 0)
(2.95564e-06 1.95218e-07 0)
(2.45478e-06 1.77182e-07 0)
(2.00198e-06 1.62828e-07 0)
(1.58718e-06 1.51993e-07 0)
(1.20046e-06 1.44028e-07 0)
(8.30662e-07 1.412e-07 0)
(4.61509e-07 1.43127e-07 0)
(8.45773e-08 9.02641e-08 0)
(1.82931e-07 5.26841e-09 0)
(4.5498e-07 6.53468e-07 0)
(1.41645e-07 8.48327e-07 0)
(-4.0136e-07 5.30784e-07 0)
(-7.65392e-07 2.00582e-07 0)
(-9.92569e-07 3.38301e-08 0)
(-1.13113e-06 -2.14086e-09 0)
(-1.24772e-06 2.96033e-08 0)
(-1.3813e-06 8.92497e-08 0)
(-1.5544e-06 1.596e-07 0)
(-1.77973e-06 2.33819e-07 0)
(-2.06681e-06 3.09448e-07 0)
(-2.42201e-06 3.85624e-07 0)
(-2.85047e-06 4.63648e-07 0)
(-3.35671e-06 5.42868e-07 0)
(-3.94356e-06 6.24193e-07 0)
(-4.6145e-06 7.07739e-07 0)
(-5.37136e-06 7.92332e-07 0)
(-6.21518e-06 8.77347e-07 0)
(-7.1463e-06 9.6092e-07 0)
(-8.16274e-06 1.04102e-06 0)
(-9.26049e-06 1.11502e-06 0)
(-1.04326e-05 1.18014e-06 0)
(-1.16694e-05 1.23321e-06 0)
(-1.29579e-05 1.27046e-06 0)
(-1.42818e-05 1.28759e-06 0)
(-1.56213e-05 1.28031e-06 0)
(-1.69528e-05 1.24468e-06 0)
(-1.82489e-05 1.17676e-06 0)
(-1.94782e-05 1.07305e-06 0)
(-2.06063e-05 9.30242e-07 0)
(-2.15969e-05 7.46082e-07 0)
(-2.24089e-05 5.18802e-07 0)
(-2.30007e-05 2.45041e-07 0)
(-2.33314e-05 -7.55996e-08 0)
(-2.33575e-05 -4.40017e-07 0)
(-2.3037e-05 -8.48176e-07 0)
(-2.23324e-05 -1.29504e-06 0)
(-2.12107e-05 -1.77369e-06 0)
(-1.96416e-05 -2.27131e-06 0)
(-1.76056e-05 -2.78887e-06 0)
(-1.50939e-05 -3.30921e-06 0)
(-1.21048e-05 -3.82132e-06 0)
(-8.65537e-06 -4.31265e-06 0)
(-4.76163e-06 -4.76477e-06 0)
(-4.58948e-07 -5.17473e-06 0)
(4.19344e-06 -5.51663e-06 0)
(9.13452e-06 -5.78066e-06 0)
(1.42898e-05 -5.95575e-06 0)
(1.95759e-05 -6.03425e-06 0)
(2.49024e-05 -6.01005e-06 0)
(3.0176e-05 -5.88223e-06 0)
(3.53027e-05 -5.65121e-06 0)
(4.01902e-05 -5.32135e-06 0)
(4.4753e-05 -4.90105e-06 0)
(4.89143e-05 -4.40104e-06 0)
(5.26099e-05 -3.83427e-06 0)
(5.57826e-05 -3.216e-06 0)
(5.83921e-05 -2.56167e-06 0)
(6.04181e-05 -1.88832e-06 0)
(6.18501e-05 -1.21136e-06 0)
(6.26906e-05 -5.4587e-07 0)
(6.29549e-05 9.42375e-08 0)
(6.26717e-05 6.97251e-07 0)
(6.18796e-05 1.25464e-06 0)
(6.06233e-05 1.75728e-06 0)
(5.89531e-05 2.20022e-06 0)
(5.6924e-05 2.5799e-06 0)
(5.45934e-05 2.89506e-06 0)
(5.20178e-05 3.14614e-06 0)
(4.9253e-05 3.33469e-06 0)
(4.63525e-05 3.46394e-06 0)
(4.33661e-05 3.53835e-06 0)
(4.03404e-05 3.5624e-06 0)
(3.73165e-05 3.54168e-06 0)
(3.43308e-05 3.48217e-06 0)
(3.14149e-05 3.39017e-06 0)
(2.85951e-05 3.2711e-06 0)
(2.58925e-05 3.13056e-06 0)
(2.33236e-05 2.97469e-06 0)
(2.09009e-05 2.80682e-06 0)
(1.86321e-05 2.63137e-06 0)
(1.65223e-05 2.45284e-06 0)
(1.45733e-05 2.27501e-06 0)
(1.27844e-05 2.09997e-06 0)
(1.11523e-05 1.92854e-06 0)
(9.67255e-06 1.76153e-06 0)
(8.34147e-06 1.59916e-06 0)
(7.15261e-06 1.44237e-06 0)
(6.09744e-06 1.29326e-06 0)
(5.16655e-06 1.1542e-06 0)
(4.35014e-06 1.02825e-06 0)
(3.63552e-06 9.18042e-07 0)
(3.00864e-06 8.25993e-07 0)
(2.45667e-06 7.51791e-07 0)
(1.96531e-06 6.9469e-07 0)
(1.51867e-06 6.56796e-07 0)
(1.09731e-06 6.54343e-07 0)
(6.70956e-07 7.06877e-07 0)
(1.2734e-07 4.53568e-07 0)
(1.38932e-07 -4.96966e-07 0)
(6.96263e-07 3.70795e-07 0)
(9.37762e-07 1.08292e-06 0)
(7.19688e-07 9.74772e-07 0)
(4.25246e-07 6.06709e-07 0)
(1.25906e-07 3.49938e-07 0)
(-1.32347e-07 2.50651e-07 0)
(-3.68031e-07 2.60269e-07 0)
(-6.089e-07 3.31348e-07 0)
(-8.79392e-07 4.37063e-07 0)
(-1.19697e-06 5.63682e-07 0)
(-1.57596e-06 7.03688e-07 0)
(-2.02701e-06 8.54257e-07 0)
(-2.55986e-06 1.01356e-06 0)
(-3.18142e-06 1.18063e-06 0)
(-3.89624e-06 1.35445e-06 0)
(-4.71089e-06 1.53374e-06 0)
(-5.62811e-06 1.71669e-06 0)
(-6.64907e-06 1.90026e-06 0)
(-7.77372e-06 2.08071e-06 0)
(-8.99969e-06 2.25455e-06 0)
(-1.03225e-05 2.41675e-06 0)
(-1.17343e-05 2.56168e-06 0)
(-1.32246e-05 2.68285e-06 0)
(-1.47795e-05 2.77281e-06 0)
(-1.63815e-05 2.82367e-06 0)
(-1.8009e-05 2.82726e-06 0)
(-1.96364e-05 2.7756e-06 0)
(-2.12339e-05 2.66101e-06 0)
(-2.27678e-05 2.47582e-06 0)
(-2.42001e-05 2.21297e-06 0)
(-2.54901e-05 1.86635e-06 0)
(-2.65936e-05 1.43212e-06 0)
(-2.74644e-05 9.06187e-07 0)
(-2.80539e-05 2.88504e-07 0)
(-2.83123e-05 -4.19601e-07 0)
(-2.81918e-05 -1.21371e-06 0)
(-2.76481e-05 -2.08562e-06 0)
(-2.6641e-05 -3.02375e-06 0)
(-2.51364e-05 -4.01239e-06 0)
(-2.31088e-05 -5.0358e-06 0)
(-2.05431e-05 -6.07068e-06 0)
(-1.74363e-05 -7.09285e-06 0)
(-1.38011e-05 -8.07555e-06 0)
(-9.66283e-06 -8.98694e-06 0)
(-5.05308e-06 -9.80739e-06 0)
(-2.92113e-08 -1.05044e-05 0)
(5.33207e-06 -1.10488e-05 0)
(1.09495e-05 -1.14198e-05 0)
(1.67296e-05 -1.16017e-05 0)
(2.257e-05 -1.15814e-05 0)
(2.83649e-05 -1.13573e-05 0)
(3.4009e-05 -1.09306e-05 0)
(3.93973e-05 -1.03099e-05 0)
(4.44325e-05 -9.51137e-06 0)
(4.90281e-05 -8.55632e-06 0)
(5.31101e-05 -7.47057e-06 0)
(5.66173e-05 -6.28472e-06 0)
(5.95044e-05 -5.02792e-06 0)
(6.17469e-05 -3.73328e-06 0)
(6.33354e-05 -2.43273e-06 0)
(6.4274e-05 -1.15552e-06 0)
(6.45816e-05 7.25828e-08 0)
(6.42918e-05 1.22977e-06 0)
(6.34471e-05 2.29696e-06 0)
(6.20983e-05 3.25687e-06 0)
(6.03034e-05 4.10082e-06 0)
(5.81234e-05 4.82316e-06 0)
(5.56223e-05 5.42104e-06 0)
(5.28621e-05 5.89519e-06 0)
(4.99039e-05 6.24917e-06 0)
(4.68063e-05 6.48934e-06 0)
(4.36236e-05 6.62398e-06 0)
(4.04059e-05 6.6628e-06 0)
(3.71982e-05 6.61618e-06 0)
(3.40398e-05 6.4952e-06 0)
(3.0964e-05 6.31177e-06 0)
(2.79988e-05 6.07632e-06 0)
(2.51673e-05 5.79931e-06 0)
(2.24875e-05 5.49166e-06 0)
(1.99724e-05 5.16184e-06 0)
(1.76304e-05 4.81796e-06 0)
(1.54679e-05 4.46807e-06 0)
(1.34861e-05 4.11888e-06 0)
(1.16839e-05 3.77539e-06 0)
(1.00579e-05 3.43969e-06 0)
(8.60203e-06 3.11325e-06 0)
(7.3097e-06 2.79931e-06 0)
(6.17153e-06 2.49931e-06 0)
(5.1757e-06 2.21643e-06 0)
(4.31067e-06 1.95452e-06 0)
(3.56615e-06 1.71746e-06 0)
(2.92954e-06 1.50816e-06 0)
(2.38651e-06 1.32986e-06 0)
(1.92465e-06 1.18274e-06 0)
(1.53162e-06 1.06704e-06 0)
(1.19004e-06 9.88926e-07 0)
(8.79682e-07 9.8547e-07 0)
(5.72858e-07 1.11539e-06 0)
(1.18217e-07 7.83356e-07 0)
(1.29335e-08 -8.20333e-07 0)
(3.82583e-07 -1.48464e-07 0)
(8.44154e-07 8.50266e-07 0)
(9.31906e-07 1.03709e-06 0)
(8.50517e-07 8.12659e-07 0)
(6.56522e-07 5.93311e-07 0)
(4.29414e-07 4.98454e-07 0)
(1.86539e-07 5.15143e-07 0)
(-7.74316e-08 6.08568e-07 0)
(-3.75257e-07 7.53119e-07 0)
(-7.21903e-07 9.34102e-07 0)
(-1.13105e-06 1.14187e-06 0)
(-1.61376e-06 1.37108e-06 0)
(-2.18041e-06 1.61764e-06 0)
(-2.83946e-06 1.88066e-06 0)
(-3.59737e-06 2.15569e-06 0)
(-4.46035e-06 2.4401e-06 0)
(-5.43253e-06 2.73069e-06 0)
(-6.51639e-06 3.02291e-06 0)
(-7.71145e-06 3.31079e-06 0)
(-9.01536e-06 3.58858e-06 0)
(-1.04244e-05 3.84877e-06 0)
(-1.19311e-05 4.08272e-06 0)
(-1.35253e-05 4.28053e-06 0)
(-1.51936e-05 4.43115e-06 0)
(-1.69183e-05 4.52294e-06 0)
(-1.86779e-05 4.54389e-06 0)
(-2.04462e-05 4.4817e-06 0)
(-2.21935e-05 4.32425e-06 0)
(-2.3885e-05 4.05957e-06 0)
(-2.54821e-05 3.67653e-06 0)
(-2.69419e-05 3.16534e-06 0)
(-2.82176e-05 2.51862e-06 0)
(-2.92592e-05 1.73143e-06 0)
(-3.00161e-05 8.02733e-07 0)
(-3.0435e-05 -2.66013e-07 0)
(-3.04619e-05 -1.46948e-06 0)
(-3.00471e-05 -2.79652e-06 0)
(-2.91456e-05 -4.22991e-06 0)
(-2.77179e-05 -5.74729e-06 0)
(-2.57334e-05 -7.32115e-06 0)
(-2.31726e-05 -8.91813e-06 0)
(-2.00284e-05 -1.05007e-05 0)
(-1.63107e-05 -1.20269e-05 0)
(-1.20431e-05 -1.34514e-05 0)
(-7.26276e-06 -1.47299e-05 0)
(-2.02385e-06 -1.58232e-05 0)
(3.59505e-06 -1.66854e-05 0)
(9.49951e-06 -1.7282e-05 0)
(1.55909e-05 -1.75866e-05 0)
(2.17562e-05 -1.75801e-05 0)
(2.78792e-05 -1.72584e-05 0)
(3.38464e-05 -1.66232e-05 0)
(3.95419e-05 -1.56886e-05 0)
(4.48589e-05 -1.44793e-05 0)
(4.97036e-05 -1.30288e-05 0)
(5.3996e-05 -1.13776e-05 0)
(5.767e-05 -9.57144e-06 0)
(6.06786e-05 -7.66036e-06 0)
(6.29962e-05 -5.69125e-06 0)
(6.46146e-05 -3.71512e-06 0)
(6.55423e-05 -1.77634e-06 0)
(6.58029e-05 8.4707e-08 0)
(6.54338e-05 1.83417e-06 0)
(6.44811e-05 3.44264e-06 0)
(6.30034e-05 4.8883e-06 0)
(6.10665e-05 6.15599e-06 0)
(5.87353e-05 7.23737e-06 0)
(5.60782e-05 8.12868e-06 0)
(5.31619e-05 8.8315e-06 0)
(5.00515e-05 9.35229e-06 0)
(4.68087e-05 9.70124e-06 0)
(4.34903e-05 9.89103e-06 0)
(4.01484e-05 9.9367e-06 0)
(3.68284e-05 9.85417e-06 0)
(3.35712e-05 9.65998e-06 0)
(3.04103e-05 9.37229e-06 0)
(2.73733e-05 9.00699e-06 0)
(2.44846e-05 8.57989e-06 0)
(2.17612e-05 8.10735e-06 0)
(1.92154e-05 7.60164e-06 0)
(1.68556e-05 7.07552e-06 0)
(1.46877e-05 6.5403e-06 0)
(1.27126e-05 6.00482e-06 0)
(1.09271e-05 5.47776e-06 0)
(9.32531e-06 4.96314e-06 0)
(7.90195e-06 4.46559e-06 0)
(6.64886e-06 3.9896e-06 0)
(5.55367e-06 3.53868e-06 0)
(4.60454e-06 3.11685e-06 0)
(3.78899e-06 2.72908e-06 0)
(3.09511e-06 2.37875e-06 0)
(2.51068e-06 2.06858e-06 0)
(2.02206e-06 1.80041e-06 0)
(1.61695e-06 1.57624e-06 0)
(1.28275e-06 1.39812e-06 0)
(1.00225e-06 1.27557e-06 0)
(7.55607e-07 1.26741e-06 0)
(5.12732e-07 1.47255e-06 0)
(1.09465e-07 1.08442e-06 0)
(-6.11094e-08 -8.87266e-07 0)
(5.51027e-08 -4.88261e-07 0)
(4.81077e-07 5.41992e-07 0)
(7.12535e-07 9.3125e-07 0)
(8.04636e-07 8.79378e-07 0)
(7.50507e-07 7.56004e-07 0)
(6.20045e-07 7.09703e-07 0)
(4.40587e-07 7.59042e-07 0)
(2.18236e-07 8.8797e-07 0)
(-5.15598e-08 1.07769e-06 0)
(-3.77998e-07 1.31482e-06 0)
(-7.72629e-07 1.59084e-06 0)
(-1.24528e-06 1.89893e-06 0)
(-1.80448e-06 2.23469e-06 0)
(-2.45972e-06 2.59466e-06 0)
(-3.21872e-06 2.97382e-06 0)
(-4.08755e-06 3.36745e-06 0)
(-5.07104e-06 3.77087e-06 0)
(-6.17277e-06 4.17753e-06 0)
(-7.39316e-06 4.57978e-06 0)
(-8.73058e-06 4.96946e-06 0)
(-1.01824e-05 5.33606e-06 0)
(-1.17425e-05 5.66793e-06 0)
(-1.34018e-05 5.95178e-06 0)
(-1.51476e-05 6.17304e-06 0)
(-1.69628e-05 6.3163e-06 0)
(-1.88263e-05 6.36538e-06 0)
(-2.07123e-05 6.30346e-06 0)
(-2.25907e-05 6.11354e-06 0)
(-2.44266e-05 5.77898e-06 0)
(-2.61799e-05 5.28424e-06 0)
(-2.78057e-05 4.61569e-06 0)
(-2.92546e-05 3.76223e-06 0)
(-3.04734e-05 2.71585e-06 0)
(-3.14064e-05 1.47314e-06 0)
(-3.19966e-05 3.55076e-08 0)
(-3.21853e-05 -1.59105e-06 0)
(-3.19152e-05 -3.39182e-06 0)
(-3.1134e-05 -5.34469e-06 0)
(-2.9796e-05 -7.4201e-06 0)
(-2.78639e-05 -9.5806e-06 0)
(-2.53119e-05 -1.17807e-05 0)
(-2.21277e-05 -1.39679e-05 0)
(-1.83163e-05 -1.60843e-05 0)
(-1.39009e-05 -1.8066e-05 0)
(-8.91894e-06 -1.9851e-05 0)
(-3.42682e-06 -2.13848e-05 0)
(2.4926e-06 -2.26002e-05 0)
(8.7371e-06 -2.34508e-05 0)
(1.51966e-05 -2.38977e-05 0)
(2.17449e-05 -2.39158e-05 0)
(2.82533e-05 -2.34943e-05 0)
(3.4597e-05 -2.26372e-05 0)
(4.06458e-05 -2.13644e-05 0)
(4.62815e-05 -1.97107e-05 0)
(5.14004e-05 -1.7723e-05 0)
(5.59147e-05 -1.54591e-05 0)
(5.97528e-05 -1.29848e-05 0)
(6.28673e-05 -1.03675e-05 0)
(6.52321e-05 -7.67403e-06 0)
(6.68402e-05 -4.97591e-06 0)
(6.77062e-05 -2.33359e-06 0)
(6.78596e-05 1.97133e-07 0)
(6.73453e-05 2.56776e-06 0)
(6.62184e-05 4.74084e-06 0)
(6.45446e-05 6.68916e-06 0)
(6.23959e-05 8.39097e-06 0)
(5.98454e-05 9.83552e-06 0)
(5.69676e-05 1.10195e-05 0)
(5.38353e-05 1.19461e-05 0)
(5.05184e-05 1.26257e-05 0)
(4.70822e-05 1.30723e-05 0)
(4.35859e-05 1.33042e-05 0)
(4.00836e-05 1.33417e-05 0)
(3.66219e-05 1.32073e-05 0)
(3.32428e-05 1.29248e-05 0)
(2.99797e-05 1.25172e-05 0)
(2.68587e-05 1.20069e-05 0)
(2.39045e-05 1.14157e-05 0)
(2.11326e-05 1.0764e-05 0)
(1.85531e-05 1.00694e-05 0)
(1.61745e-05 9.34834e-06 0)
(1.40001e-05 8.61581e-06 0)
(1.20295e-05 7.88325e-06 0)
(1.02579e-05 7.16199e-06 0)
(8.67803e-06 6.45995e-06 0)
(7.2833e-06 5.78537e-06 0)
(6.06372e-06 5.1423e-06 0)
(5.00684e-06 4.53753e-06 0)
(4.09995e-06 3.9748e-06 0)
(3.32956e-06 3.45935e-06 0)
(2.68308e-06 2.99376e-06 0)
(2.14732e-06 2.58118e-06 0)
(1.70898e-06 2.22303e-06 0)
(1.35671e-06 1.92179e-06 0)
(1.07619e-06 1.68028e-06 0)
(8.49443e-07 1.51294e-06 0)
(6.56891e-07 1.50082e-06 0)
(4.65476e-07 1.78433e-06 0)
(1.01865e-07 1.35828e-06 0)
(-8.75228e-08 -8.15573e-07 0)
(-1.1291e-07 -6.95828e-07 0)
(2.21307e-07 2.21593e-07 0)
(4.91398e-07 7.04525e-07 0)
(6.8169e-07 7.91967e-07 0)
(7.39644e-07 7.79327e-07 0)
(7.08398e-07 8.1085e-07 0)
(6.0931e-07 9.20643e-07 0)
(4.50891e-07 1.1054e-06 0)
(2.32269e-07 1.35458e-06 0)
(-5.18615e-08 1.65834e-06 0)
(-4.10489e-07 2.00967e-06 0)
(-8.52124e-07 2.40293e-06 0)
(-1.38486e-06 2.83277e-06 0)
(-2.01851e-06 3.29442e-06 0)
(-2.76125e-06 3.78245e-06 0)
(-3.61922e-06 4.29132e-06 0)
(-4.59843e-06 4.81455e-06 0)
(-5.70417e-06 5.34337e-06 0)
(-6.93732e-06 5.86893e-06 0)
(-8.29812e-06 6.38096e-06 0)
(-9.78595e-06 6.86536e-06 0)
(-1.13958e-05 7.30771e-06 0)
(-1.31204e-05 7.6913e-06 0)
(-1.4948e-05 7.99804e-06 0)
(-1.68626e-05 8.20844e-06 0)
(-1.88439e-05 8.30174e-06 0)
(-2.08668e-05 8.25615e-06 0)
(-2.29013e-05 8.04951e-06 0)
(-2.49115e-05 7.66002e-06 0)
(-2.68556e-05 7.06712e-06 0)
(-2.86866e-05 6.25224e-06 0)
(-3.0352e-05 5.19944e-06 0)
(-3.17941e-05 3.89677e-06 0)
(-3.29529e-05 2.33745e-06 0)
(-3.37654e-05 5.2275e-07 0)
(-3.41643e-05 -1.54022e-06 0)
(-3.40837e-05 -3.83592e-06 0)
(-3.34632e-05 -6.33794e-06 0)
(-3.22481e-05 -9.00916e-06 0)
(-3.03915e-05 -1.18018e-05 0)
(-2.78587e-05 -1.46569e-05 0)
(-2.46301e-05 -1.75062e-05 0)
(-2.07042e-05 -2.02734e-05 0)
(-1.61006e-05 -2.28755e-05 0)
(-1.08656e-05 -2.52288e-05 0)
(-5.04807e-06 -2.72555e-05 0)
(1.2649e-06 -2.88755e-05 0)
(7.94995e-06 -3.00187e-05 0)
(1.48874e-05 -3.06338e-05 0)
(2.19355e-05 -3.06876e-05 0)
(2.8949e-05 -3.0162e-05 0)
(3.57831e-05 -2.90629e-05 0)
(4.22908e-05 -2.74182e-05 0)
(4.83382e-05 -2.52738e-05 0)
(5.38082e-05 -2.26929e-05 0)
(5.86015e-05 -1.97531e-05 0)
(6.26423e-05 -1.65425e-05 0)
(6.58824e-05 -1.31495e-05 0)
(6.82922e-05 -9.66827e-06 0)
(6.98696e-05 -6.18658e-06 0)
(7.0639e-05 -2.78606e-06 0)
(7.0636e-05 4.60908e-07 0)
(6.99163e-05 3.49332e-06 0)
(6.85474e-05 6.26237e-06 0)
(6.66036e-05 8.73308e-06 0)
(6.41673e-05 1.08804e-05 0)
(6.13219e-05 1.26918e-05 0)
(5.81498e-05 1.41651e-05 0)
(5.47314e-05 1.53067e-05 0)
(5.11425e-05 1.6131e-05 0)
(4.74527e-05 1.66576e-05 0)
(4.37251e-05 1.69108e-05 0)
(4.00159e-05 1.69187e-05 0)
(3.63741e-05 1.67106e-05 0)
(3.28409e-05 1.63177e-05 0)
(2.94488e-05 1.57681e-05 0)
(2.62245e-05 1.50917e-05 0)
(2.31903e-05 1.43161e-05 0)
(2.03597e-05 1.34658e-05 0)
(1.77412e-05 1.25655e-05 0)
(1.5341e-05 1.16341e-05 0)
(1.31604e-05 1.06904e-05 0)
(1.11966e-05 9.74965e-06 0)
(9.44363e-06 8.8251e-06 0)
(7.89225e-06 7.92888e-06 0)
(6.533e-06 7.07043e-06 0)
(5.3555e-06 6.25578e-06 0)
(4.34617e-06 5.49282e-06 0)
(3.49097e-06 4.78444e-06 0)
(2.77593e-06 4.13786e-06 0)
(2.18714e-06 3.5547e-06 0)
(1.71163e-06 3.03793e-06 0)
(1.33554e-06 2.58908e-06 0)
(1.04678e-06 2.21093e-06 0)
(8.29885e-07 1.90556e-06 0)
(6.67711e-07 1.69341e-06 0)
(5.38934e-07 1.67842e-06 0)
(4.07116e-07 2.0476e-06 0)
(9.15045e-08 1.60367e-06 0)
(-8.43654e-08 -6.93999e-07 0)
(-1.48318e-07 -8.13134e-07 0)
(1.21241e-07 -5.34835e-08 0)
(3.95462e-07 4.51565e-07 0)
(6.35596e-07 6.35615e-07 0)
(7.70502e-07 7.21069e-07 0)
(8.21555e-07 8.3385e-07 0)
(7.99334e-07 1.01261e-06 0)
(7.09511e-07 1.26248e-06 0)
(5.51454e-07 1.57898e-06 0)
(3.21042e-07 1.95605e-06 0)
(1.07272e-08 2.38892e-06 0)
(-3.88058e-07 2.87174e-06 0)
(-8.83272e-07 3.4001e-06 0)
(-1.48464e-06 3.96855e-06 0)
(-2.20079e-06 4.57188e-06 0)
(-3.03891e-06 5.2031e-06 0)
(-4.00707e-06 5.85413e-06 0)
(-5.11116e-06 6.51531e-06 0)
(-6.35309e-06 7.17579e-06 0)
(-7.73634e-06 7.8227e-06 0)
(-9.2624e-06 8.43908e-06 0)
(-1.09275e-05 9.00808e-06 0)
(-1.27265e-05 9.5093e-06 0)
(-1.46491e-05 9.92085e-06 0)
(-1.66811e-05 1.02188e-05 0)
(-1.88034e-05 1.03775e-05 0)
(-2.09919e-05 1.03697e-05 0)
(-2.32165e-05 1.01675e-05 0)
(-2.54407e-05 9.74348e-06 0)
(-2.76211e-05 9.0709e-06 0)
(-2.97084e-05 8.12504e-06 0)
(-3.16466e-05 6.88414e-06 0)
(-3.33733e-05 5.33128e-06 0)
(-3.48197e-05 3.45548e-06 0)
(-3.59146e-05 1.25597e-06 0)
(-3.65853e-05 -1.26079e-06 0)
(-3.67552e-05 -4.078e-06 0)
(-3.63502e-05 -7.16672e-06 0)
(-3.53033e-05 -1.04818e-05 0)
(-3.35555e-05 -1.39645e-05 0)
(-3.10602e-05 -1.75419e-05 0)
(-2.77879e-05 -2.11282e-05 0)
(-2.37288e-05 -2.46267e-05 0)
(-1.88989e-05 -2.79324e-05 0)
(-1.33407e-05 -3.09361e-05 0)
(-7.11375e-06 -3.35275e-05 0)
(-3.08917e-07 -3.56176e-05 0)
(6.94249e-06 -3.71068e-05 0)
(1.44935e-05 -3.79255e-05 0)
(2.21848e-05 -3.80286e-05 0)
(2.98486e-05 -3.7393e-05 0)
(3.73137e-05 -3.60258e-05 0)
(4.44105e-05 -3.39636e-05 0)
(5.09849e-05 -3.1266e-05 0)
(5.69014e-05 -2.80163e-05 0)
(6.20476e-05 -2.43154e-05 0)
(6.63411e-05 -2.02776e-05 0)
(6.97282e-05 -1.60201e-05 0)
(7.21834e-05 -1.16639e-05 0)
(7.37125e-05 -7.31736e-06 0)
(7.43453e-05 -3.08665e-06 0)
(7.41321e-05 9.36687e-07 0)
(7.31413e-05 4.67898e-06 0)
(7.14539e-05 8.07976e-06 0)
(6.91595e-05 1.10971e-05 0)
(6.63526e-05 1.37028e-05 0)
(6.31291e-05 1.5884e-05 0)
(5.95823e-05 1.76406e-05 0)
(5.58017e-05 1.89834e-05 0)
(5.18704e-05 1.99326e-05 0)
(4.78634e-05 2.05154e-05 0)
(4.38487e-05 2.07635e-05 0)
(3.98849e-05 2.07134e-05 0)
(3.6022e-05 2.04022e-05 0)
(3.23008e-05 1.98679e-05 0)
(2.87534e-05 1.91476e-05 0)
(2.54053e-05 1.82779e-05 0)
(2.22761e-05 1.72918e-05 0)
(1.93783e-05 1.62202e-05 0)
(1.67167e-05 1.50926e-05 0)
(1.4294e-05 1.39327e-05 0)
(1.21098e-05 1.27622e-05 0)
(1.01583e-05 1.16001e-05 0)
(8.43148e-06 1.04626e-05 0)
(6.91836e-06 9.3631e-06 0)
(5.60617e-06 8.31302e-06 0)
(4.48312e-06 7.3203e-06 0)
(3.5334e-06 6.39249e-06 0)
(2.74346e-06 5.53479e-06 0)
(2.0985e-06 4.75265e-06 0)
(1.58174e-06 4.04945e-06 0)
(1.17999e-06 3.42702e-06 0)
(8.79668e-07 2.88638e-06 0)
(6.67615e-07 2.43024e-06 0)
(5.27379e-07 2.06009e-06 0)
(4.42624e-07 1.80303e-06 0)
(3.91179e-07 1.78609e-06 0)
(3.3337e-07 2.24852e-06 0)
(7.83442e-08 1.81146e-06 0)
(-7.14076e-08 -5.81153e-07 0)
(-1.16109e-07 -9.07922e-07 0)
(1.30079e-07 -3.09991e-07 0)
(4.11049e-07 1.80614e-07 0)
(6.85094e-07 4.26242e-07 0)
(8.79168e-07 5.91877e-07 0)
(1.00011e-06 7.81385e-07 0)
(1.04985e-06 1.03193e-06 0)
(1.02984e-06 1.35231e-06 0)
(9.37221e-07 1.74219e-06 0)
(7.68225e-07 2.19837e-06 0)
(5.14296e-07 2.71714e-06 0)
(1.67223e-07 3.29495e-06 0)
(-2.80764e-07 3.92746e-06 0)
(-8.40332e-07 4.60894e-06 0)
(-1.52121e-06 5.33432e-06 0)
(-2.33239e-06 6.09601e-06 0)
(-3.2826e-06 6.88468e-06 0)
(-4.37985e-06 7.6897e-06 0)
(-5.62824e-06 8.49884e-06 0)
(-7.03411e-06 9.29538e-06 0)
(-8.60077e-06 1.00612e-05 0)
(-1.03267e-05 1.07766e-05 0)
(-1.22095e-05 1.14175e-05 0)
(-1.4241e-05 1.19578e-05 0)
(-1.64091e-05 1.23688e-05 0)
(-1.86967e-05 1.26195e-05 0)
(-2.10808e-05 1.26767e-05 0)
(-2.35318e-05 1.25065e-05 0)
(-2.60126e-05 1.20742e-05 0)
(-2.84788e-05 1.13461e-05 0)
(-3.08782e-05 1.02901e-05 0)
(-3.31507e-05 8.87763e-06 0)
(-3.52278e-05 7.08551e-06 0)
(-3.70333e-05 4.89777e-06 0)
(-3.84868e-05 2.30744e-06 0)
(-3.95033e-05 -6.82757e-07 0)
(-3.99946e-05 -4.05438e-06 0)
(-3.98718e-05 -7.77497e-06 0)
(-3.90506e-05 -1.17923e-05 0)
(-3.74562e-05 -1.6037e-05 0)
(-3.50269e-05 -2.04213e-05 0)
(-3.17193e-05 -2.48401e-05 0)
(-2.75126e-05 -2.91732e-05 0)
(-2.24142e-05 -3.32887e-05 0)
(-1.64652e-05 -3.70464e-05 0)
(-9.7339e-06 -4.03072e-05 0)
(-2.31827e-06 -4.29533e-05 0)
(5.63853e-06 -4.48557e-05 0)
(1.39624e-05 -4.59236e-05 0)
(2.24651e-05 -4.60957e-05 0)
(3.09493e-05 -4.5343e-05 0)
(3.92105e-05 -4.36736e-05 0)
(4.70489e-05 -4.11338e-05 0)
(5.42841e-05 -3.78006e-05 0)
(6.07576e-05 -3.37841e-05 0)
(6.63394e-05 -2.92106e-05 0)
(7.09369e-05 -2.42312e-05 0)
(7.44955e-05 -1.8994e-05 0)
(7.69946e-05 -1.36483e-05 0)
(7.84466e-05 -8.33496e-06 0)
(7.8893e-05 -3.18434e-06 0)
(7.84018e-05 1.69063e-06 0)
(7.70596e-05 6.20038e-06 0)
(7.49659e-05 1.02752e-05 0)
(7.22272e-05 1.38663e-05 0)
(6.89549e-05 1.69438e-05 0)
(6.52606e-05 1.94952e-05 0)
(6.12504e-05 2.15248e-05 0)
(5.70247e-05 2.30496e-05 0)
(5.26758e-05 2.40974e-05 0)
(4.82851e-05 2.47049e-05 0)
(4.39247e-05 2.49139e-05 0)
(3.96561e-05 2.47685e-05 0)
(3.553e-05 2.43158e-05 0)
(3.15875e-05 2.36032e-05 0)
(2.78598e-05 2.26767e-05 0)
(2.43693e-05 2.15794e-05 0)
(2.1133e-05 2.03517e-05 0)
(1.81607e-05 1.90318e-05 0)
(1.54536e-05 1.76518e-05 0)
(1.30104e-05 1.62419e-05 0)
(1.08275e-05 1.48265e-05 0)
(8.8968e-06 1.34278e-05 0)
(7.20645e-06 1.20641e-05 0)
(5.74273e-06 1.07504e-05 0)
(4.49042e-06 9.49964e-06 0)
(3.43538e-06 8.32134e-06 0)
(2.56122e-06 7.2228e-06 0)
(1.85175e-06 6.21177e-06 0)
(1.29117e-06 5.29044e-06 0)
(8.61999e-07 4.46379e-06 0)
(5.4889e-07 3.73308e-06 0)
(3.38542e-07 3.09956e-06 0)
(2.16067e-07 2.56411e-06 0)
(1.65526e-07 2.12951e-06 0)
(1.71698e-07 1.82716e-06 0)
(2.10389e-07 1.81003e-06 0)
(2.3979e-07 2.37255e-06 0)
(6.06494e-08 1.97133e-06 0)
(-5.71198e-08 -5.025e-07 0)
(-5.74358e-08 -1.02055e-06 0)
(2.00797e-07 -5.73578e-07 0)
(5.04715e-07 -1.12365e-07 0)
(8.13759e-07 1.72894e-07 0)
(1.063e-06 4.02883e-07 0)
(1.24989e-06 6.61341e-07 0)
(1.37025e-06 9.81765e-07 0)
(1.42179e-06 1.37365e-06 0)
(1.39968e-06 1.83932e-06 0)
(1.29802e-06 2.37786e-06 0)
(1.1092e-06 2.98661e-06 0)
(8.24059e-07 3.66425e-06 0)
(4.32416e-07 4.40602e-06 0)
(-7.621e-08 5.20712e-06 0)
(-7.12293e-07 6.06172e-06 0)
(-1.4873e-06 6.96289e-06 0)
(-2.41233e-06 7.9003e-06 0)
(-3.49616e-06 8.86205e-06 0)
(-4.74679e-06 9.8346e-06 0)
(-6.17357e-06 1.07987e-05 0)
(-7.78101e-06 1.17352e-05 0)
(-9.57134e-06 1.26202e-05 0)
(-1.15455e-05 1.34267e-05 0)
(-1.36981e-05 1.41244e-05 0)
(-1.60199e-05 1.46794e-05 0)
(-1.84961e-05 1.50548e-05 0)
(-2.11056e-05 1.52111e-05 0)
(-2.38197e-05 1.51069e-05 0)
(-2.66017e-05 1.46999e-05 0)
(-2.9406e-05 1.39478e-05 0)
(-3.21776e-05 1.28096e-05 0)
(-3.48519e-05 1.12482e-05 0)
(-3.73538e-05 9.23178e-06 0)
(-3.95984e-05 6.73629e-06 0)
(-4.14957e-05 3.74711e-06 0)
(-4.29474e-05 2.67274e-07 0)
(-4.38475e-05 -3.6913e-06 0)
(-4.4088e-05 -8.09344e-06 0)
(-4.3565e-05 -1.28813e-05 0)
(-4.2184e-05 -1.79747e-05 0)
(-3.98628e-05 -2.32699e-05 0)
(-3.6539e-05 -2.86401e-05 0)
(-3.21764e-05 -3.39376e-05 0)
(-2.67711e-05 -3.89983e-05 0)
(-2.03585e-05 -4.36474e-05 0)
(-1.30204e-05 -4.77064e-05 0)
(-4.85702e-06 -5.10197e-05 0)
(3.9728e-06 -5.34258e-05 0)
(1.32542e-05 -5.48041e-05 0)
(2.27661e-05 -5.5073e-05 0)
(3.22715e-05 -5.41949e-05 0)
(4.1524e-05 -5.21794e-05 0)
(5.02847e-05 -4.90844e-05 0)
(5.83357e-05 -4.50091e-05 0)
(6.54926e-05 -4.00979e-05 0)
(7.16018e-05 -3.45146e-05 0)
(7.65588e-05 -2.8445e-05 0)
(8.03119e-05 -2.20786e-05 0)
(8.28432e-05 -1.56045e-05 0)
(8.41772e-05 -9.19837e-06 0)
(8.43715e-05 -3.0183e-06 0)
(8.35175e-05 2.79852e-06 0)
(8.17265e-05 8.14715e-06 0)
(7.91204e-05 1.29466e-05 0)
(7.58285e-05 1.71421e-05 0)
(7.1982e-05 2.07038e-05 0)
(6.77106e-05 2.36225e-05 0)
(6.31372e-05 2.59086e-05 0)
(5.83748e-05 2.75883e-05 0)
(5.35262e-05 2.86996e-05 0)
(4.86805e-05 2.92903e-05 0)
(4.39128e-05 2.9415e-05 0)
(3.92874e-05 2.91285e-05 0)
(3.48571e-05 2.84884e-05 0)
(3.06621e-05 2.75526e-05 0)
(2.67299e-05 2.63768e-05 0)
(2.30805e-05 2.50108e-05 0)
(1.97286e-05 2.35052e-05 0)
(1.66785e-05 2.19031e-05 0)
(1.3927e-05 2.02421e-05 0)
(1.14687e-05 1.85565e-05 0)
(9.29576e-06 1.68747e-05 0)
(7.39602e-06 1.52212e-05 0)
(5.7543e-06 1.36158e-05 0)
(4.35425e-06 1.20757e-05 0)
(3.17748e-06 1.06146e-05 0)
(2.20665e-06 9.24357e-06 0)
(1.42421e-06 7.96864e-06 0)
(8.11491e-07 6.7985e-06 0)
(3.50896e-07 5.73499e-06 0)
(2.47207e-08 4.78222e-06 0)
(-1.83995e-07 3.94128e-06 0)
(-2.89629e-07 3.21436e-06 0)
(-3.07979e-07 2.59876e-06 0)
(-2.55095e-07 2.10082e-06 0)
(-1.45276e-07 1.75481e-06 0)
(-3.38477e-09 1.73934e-06 0)
(1.26775e-07 2.40568e-06 0)
(3.88875e-08 2.07327e-06 0)
(-4.29993e-08 -4.65378e-07 0)
(1.19205e-08 -1.17304e-06 0)
(3.06691e-07 -8.65511e-07 0)
(6.50553e-07 -4.40544e-07 0)
(1.00376e-06 -1.2853e-07 0)
(1.31202e-06 1.53674e-07 0)
(1.5666e-06 4.73224e-07 0)
(1.76009e-06 8.59345e-07 0)
(1.88733e-06 1.32186e-06 0)
(1.94171e-06 1.86417e-06 0)
(1.91586e-06 2.4869e-06 0)
(1.80106e-06 3.1895e-06 0)
(1.58705e-06 3.97019e-06 0)
(1.26257e-06 4.82595e-06 0)
(8.15873e-07 5.75275e-06 0)
(2.35099e-07 6.7449e-06 0)
(-4.93279e-07 7.79492e-06 0)
(-1.38295e-06 8.89279e-06 0)
(-2.44512e-06 1.00258e-05 0)
(-3.69128e-06 1.11786e-05 0)
(-5.13325e-06 1.2331e-05 0)
(-6.77914e-06 1.34616e-05 0)
(-8.63518e-06 1.45434e-05 0)
(-1.07053e-05 1.5546e-05 0)
(-1.29884e-05 1.64347e-05 0)
(-1.54788e-05 1.71702e-05 0)
(-1.81652e-05 1.77096e-05 0)
(-2.10289e-05 1.80061e-05 0)
(-2.40431e-05 1.80101e-05 0)
(-2.71719e-05 1.76702e-05 0)
(-3.03692e-05 1.69341e-05 0)
(-3.35778e-05 1.57505e-05 0)
(-3.67285e-05 1.40714e-05 0)
(-3.97398e-05 1.18538e-05 0)
(-4.2518e-05 9.06312e-06 0)
(-4.49558e-05 5.67563e-06 0)
(-4.69415e-05 1.68741e-06 0)
(-4.83548e-05 -2.89448e-06 0)
(-4.90611e-05 -8.03426e-06 0)
(-4.89308e-05 -1.36721e-05 0)
(-4.78436e-05 -1.97173e-05 0)
(-4.5691e-05 -2.60495e-05 0)
(-4.23853e-05 -3.25171e-05 0)
(-3.78689e-05 -3.8941e-05 0)
(-3.21221e-05 -4.51187e-05 0)
(-2.51715e-05 -5.08316e-05 0)
(-1.71051e-05 -5.58554e-05 0)
(-8.03686e-06 -5.99749e-05 0)
(1.85513e-06 -6.30056e-05 0)
(1.23162e-05 -6.47771e-05 0)
(2.30754e-05 -6.51806e-05 0)
(3.38442e-05 -6.41677e-05 0)
(4.43224e-05 -6.17502e-05 0)
(5.42208e-05 -5.80009e-05 0)
(6.32722e-05 -5.30495e-05 0)
(7.12536e-05 -4.708e-05 0)
(7.79937e-05 -4.0306e-05 0)
(8.33741e-05 -3.29573e-05 0)
(8.73371e-05 -2.52774e-05 0)
(8.98757e-05 -1.75017e-05 0)
(9.10337e-05 -9.84711e-06 0)
(9.08906e-05 -2.50659e-06 0)
(8.95681e-05 4.36062e-06 0)
(8.72084e-05 1.06312e-05 0)
(8.39614e-05 1.62124e-05 0)
(7.99849e-05 2.10445e-05 0)
(7.54357e-05 2.5099e-05 0)
(7.04657e-05 2.83747e-05 0)
(6.52166e-05 3.08924e-05 0)
(5.98161e-05 3.26898e-05 0)
(5.43781e-05 3.38183e-05 0)
(4.90008e-05 3.43396e-05 0)
(4.37633e-05 3.43231e-05 0)
(3.87298e-05 3.38389e-05 0)
(3.39543e-05 3.29556e-05 0)
(2.94761e-05 3.17419e-05 0)
(2.53182e-05 3.02649e-05 0)
(2.1498e-05 2.85851e-05 0)
(1.80254e-05 2.67585e-05 0)
(1.48977e-05 2.48351e-05 0)
(1.21073e-05 2.28591e-05 0)
(9.64317e-06 2.08682e-05 0)
(7.49239e-06 1.88945e-05 0)
(5.6382e-06 1.69648e-05 0)
(4.06137e-06 1.51014e-05 0)
(2.74192e-06 1.33227e-05 0)
(1.65863e-06 1.16409e-05 0)
(7.89779e-07 1.00695e-05 0)
(1.16473e-07 8.6129e-06 0)
(-3.81598e-07 7.27872e-06 0)
(-7.24808e-07 6.07055e-06 0)
(-9.31428e-07 4.99059e-06 0)
(-1.01877e-06 4.03815e-06 0)
(-1.00449e-06 3.21726e-06 0)
(-9.04221e-07 2.5235e-06 0)
(-7.3234e-07 1.96151e-06 0)
(-5.05138e-07 1.57112e-06 0)
(-2.51096e-07 1.5561e-06 0)
(-7.70733e-09 2.33572e-06 0)
(1.35568e-08 2.10592e-06 0)
(-3.00309e-08 -4.69989e-07 0)
(8.495e-08 -1.37788e-06 0)
(4.33051e-07 -1.20401e-06 0)
(8.32372e-07 -8.17607e-07 0)
(1.24213e-06 -4.86706e-07 0)
(1.61667e-06 -1.61639e-07 0)
(1.94441e-06 2.12207e-07 0)
(2.21669e-06 6.59753e-07 0)
(2.42623e-06 1.19048e-06 0)
(2.56466e-06 1.80877e-06 0)
(2.62336e-06 2.51672e-06 0)
(2.59254e-06 3.31443e-06 0)
(2.4606e-06 4.20121e-06 0)
(2.21512e-06 5.17561e-06 0)
(1.84294e-06 6.23417e-06 0)
(1.33016e-06 7.37169e-06 0)
(6.60945e-07 8.58023e-06 0)
(-1.8109e-07 9.8519e-06 0)
(-1.21002e-06 1.11711e-05 0)
(-2.4412e-06 1.25231e-05 0)
(-3.89027e-06 1.38871e-05 0)