/*--------------------------------*- C++ -*----------------------------------*\
| =========                 |                                                 |
| \\      /  F ield         | OpenFOAM: The Open Source CFD Toolbox           |
|  \\    /   O peration     | Version:  2312                                  |
|   \\  /    A nd           | Website:  www.openfoam.com                      |
|    \\/     M anipulation  |                                                 |
\*---------------------------------------------------------------------------*/
FoamFile
{
    version     2.0;
    format      ascii;
    arch        "LSB;label=32;scalar=64";
    class       surfaceScalarField;
    location    "0.5";
    object      alphaPhi0.water;
}
// * * * * * * * * * * * * * * * * * * * * * * * * * * * * * * * * * * * * * //

dimensions      [0 3 -1 0 0 0 0];

oriented        oriented;

internalField   nonuniform List<scalar> 
19800
(
-1.97806e-13
2.37823e-13
-7.02645e-13
5.04232e-13
-1.41061e-12
7.06894e-13
-2.12528e-12
7.13585e-13
-2.78583e-12
6.59647e-13
-3.40507e-12
6.18472e-13
-4.04778e-12
6.41862e-13
-4.77578e-12
7.2685e-13
-5.63079e-12
8.5369e-13
-6.64175e-12
1.00993e-12
-7.82904e-12
1.18711e-12
-9.20985e-12
1.38154e-12
-1.08002e-11
1.59133e-12
-1.26154e-11
1.8153e-12
-1.46694e-11
2.05249e-12
-1.69741e-11
2.30219e-12
-1.95404e-11
2.56372e-12
-2.23776e-11
2.83591e-12
-2.54941e-11
3.11668e-12
-2.88962e-11
3.40292e-12
-3.25865e-11
3.69081e-12
-3.6563e-11
3.97621e-12
-4.08183e-11
4.2547e-12
-4.53401e-11
4.52126e-12
-5.01102e-11
4.76998e-12
-5.51043e-11
4.99405e-12
-6.02907e-11
5.18609e-12
-6.56294e-11
5.33848e-12
-7.10724e-11
5.44325e-12
-7.65635e-11
5.49185e-12
-8.20381e-11
5.4752e-12
-8.74225e-11
5.38419e-12
-9.26337e-11
5.21017e-12
-9.75798e-11
4.94512e-12
-1.02162e-10
4.58212e-12
-1.06276e-10
4.11521e-12
-1.09813e-10
3.53934e-12
-1.12666e-10
2.85402e-12
-1.14725e-10
2.05957e-12
-1.15877e-10
1.15223e-12
-1.16008e-10
1.32027e-13
-1.15064e-10
-9.42401e-13
-1.12962e-10
-2.10144e-12
-1.09654e-10
-3.30803e-12
-1.05118e-10
-4.53551e-12
-9.93635e-11
-5.75444e-12
-9.24303e-11
-6.93205e-12
-8.43949e-11
-8.03453e-12
-7.53688e-11
-9.0263e-12
-6.5498e-11
-9.87102e-12
-5.49505e-11
-1.05475e-11
-4.39234e-11
-1.10273e-11
-3.26294e-11
-1.12935e-11
-2.12951e-11
-1.13333e-11
-1.01431e-11
-1.11517e-11
6.12299e-13
-1.07555e-11
1.07741e-11
-1.01619e-11
2.01652e-11
-9.39027e-12
2.86378e-11
-8.47113e-12
3.60773e-11
-7.43783e-12
4.24043e-11
-6.32531e-12
4.75736e-11
-5.16842e-12
5.15752e-11
-4.0008e-12
5.44291e-11
-2.8536e-12
5.61863e-11
-1.75706e-12
5.69105e-11
-7.23974e-13
5.66923e-11
2.17866e-13
5.56409e-11
1.05129e-12
5.38636e-11
1.77662e-12
5.14772e-11
2.38596e-12
4.85972e-11
2.87883e-12
4.53389e-11
3.2578e-12
4.18083e-11
3.52898e-12
3.81071e-11
3.70024e-12
3.43255e-11
3.78073e-12
3.05435e-11
3.78159e-12
2.68317e-11
3.71283e-12
2.32473e-11
3.58528e-12
1.98386e-11
3.40929e-12
1.66434e-11
3.19546e-12
1.36887e-11
2.95343e-12
1.09955e-11
2.69431e-12
8.57221e-12
2.42117e-12
6.42927e-12
2.14348e-12
4.56036e-12
1.86525e-12
2.96558e-12
1.59476e-12
1.63564e-12
1.33184e-12
5.54712e-13
1.08084e-12
-2.81896e-13
8.42469e-13
-9.05723e-13
6.18844e-13
-1.32321e-12
4.18381e-13
-1.55834e-12
2.39459e-13
-1.64056e-12
8.08298e-14
-1.58614e-12
-5.1251e-14
-1.43751e-12
-1.4995e-13
-1.20503e-12
-2.33656e-13
-9.2004e-13
-2.84734e-13
-6.44074e-13
-2.78043e-13
-4.14771e-13
-2.35111e-13
-4.21858e-13
-2.02946e-13
4.40122e-13
-7.7117e-13
1.0704e-12
-1.71833e-12
1.6522e-12
-2.88123e-12
1.87494e-12
-4.04958e-12
1.8267e-12
-5.19895e-12
1.76645e-12
-6.39727e-12
1.83847e-12
-7.73379e-12
2.06145e-12
-9.28542e-12
2.40382e-12
-1.11092e-11
2.83326e-12
-1.32498e-11
3.32835e-12
-1.57448e-11
3.87734e-12
-1.86279e-11
4.47391e-12
-2.19292e-11
5.11403e-12
-2.56755e-11
5.79479e-12
-2.989e-11
6.51305e-12
-3.45931e-11
7.26487e-12
-3.98018e-11
8.04485e-12
-4.55297e-11
8.84574e-12
-5.17847e-11
9.65855e-12
-5.85669e-11
1.04727e-11
-6.58678e-11
1.12761e-11
-7.36687e-11
1.20548e-11
-8.19405e-11
1.27926e-11
-9.06423e-11
1.34715e-11
-9.97202e-11
1.40714e-11
-1.09105e-10
1.45708e-11
-1.18713e-10
1.49466e-11
-1.28444e-10
1.51748e-11
-1.38181e-10
1.52299e-11
-1.47793e-10
1.50864e-11
-1.57129e-10
1.4719e-11
-1.66023e-10
1.41036e-11
-1.74295e-10
1.3218e-11
-1.81754e-10
1.20426e-11
-1.88197e-10
1.05618e-11
-1.93421e-10
8.76522e-12
-1.97217e-10
6.6515e-12
-1.99384e-10
4.22712e-12
-1.99735e-10
1.50474e-12
-1.98107e-10
-1.49384e-12
-1.94341e-10
-4.70809e-12
-1.88344e-10
-8.09788e-12
-1.80057e-10
-1.15946e-11
-1.69473e-10
-1.51186e-11
-1.56644e-10
-1.8583e-11
-1.41684e-10
-2.18908e-11
-1.24774e-10
-2.49438e-11
-1.06158e-10
-2.76432e-11
-8.61338e-11
-2.98961e-11
-6.50577e-11
-3.16226e-11
-4.33189e-11
-3.27652e-11
-2.13364e-11
-3.32755e-11
4.65041e-13
-3.31341e-11
2.16612e-11
-3.23472e-11
4.18526e-11
-3.09458e-11
6.06749e-11
-2.89827e-11
7.78154e-11
-2.65284e-11
9.30177e-11
-2.36703e-11
1.06088e-10
-2.05062e-11
1.16902e-10
-1.71377e-11
1.25401e-10
-1.36665e-11
1.31591e-10
-1.01893e-11
1.35533e-10
-6.79568e-12
1.37338e-10
-3.56342e-12
1.37169e-10
-5.55391e-13
1.35209e-10
2.17767e-12
1.31665e-10
4.59505e-12
1.26763e-10
6.67657e-12
1.20736e-10
8.4113e-12
1.13811e-10
9.80037e-12
1.06213e-10
1.08544e-11
9.815e-11
1.15909e-11
8.98158e-11
1.20344e-11
8.1386e-11
1.22121e-11
7.30135e-11
1.21546e-11
6.48315e-11
1.18949e-11
5.69507e-11
1.14657e-11
4.94618e-11
1.08978e-11
4.24352e-11
1.02229e-11
3.59225e-11
9.46506e-12
2.99583e-11
8.65679e-12
2.45624e-11
7.81422e-12
1.97458e-11
6.96067e-12
1.55041e-11
6.10833e-12
1.18226e-11
5.27477e-12
8.68783e-12
4.46799e-12
6.06873e-12
3.69594e-12
3.94307e-12
2.97226e-12
2.26662e-12
2.29826e-12
1.00424e-12
1.68155e-12
1.13644e-13
1.13241e-12
-4.53372e-13
6.47656e-13
-7.43975e-13
2.38478e-13
-8.01823e-13
-9.36024e-14
-6.9779e-13
-3.39558e-13
-5.06325e-13
-4.75395e-13
-3.23441e-13
-4.53681e-13
-2.36714e-13
-3.16495e-13
-6.63035e-13
-9.44118e-14
5.33458e-13
-3.51086e-13
1.32549e-12
-1.00806e-12
2.30807e-12
-2.00264e-12
2.86875e-12
-3.19634e-12
3.01973e-12
-4.5043e-12
3.07345e-12
-5.93472e-12
3.26742e-12
-7.5432e-12
3.66818e-12
-9.39673e-12
4.25591e-12
-1.15574e-11
4.9933e-12
-1.40804e-11
5.85122e-12
-1.70144e-11
6.81113e-12
-2.04034e-11
7.86154e-12
-2.42864e-11
8.99447e-12
-2.86979e-11
1.02033e-11
-3.36677e-11
1.14808e-11
-3.92216e-11
1.28183e-11
-4.53811e-11
1.4205e-11
-5.2162e-11
1.56275e-11
-5.95728e-11
1.70696e-11
-6.76129e-11
1.85123e-11
-7.62712e-11
1.99335e-11
-8.5525e-11
2.13076e-11
-9.53389e-11
2.26058e-11
-1.05664e-10
2.37954e-11
-1.16434e-10
2.48408e-11
-1.27566e-10
2.5703e-11
-1.3896e-10
2.63407e-11
-1.50495e-10
2.67104e-11
-1.62032e-10
2.6767e-11
-1.7341e-10
2.64648e-11
-1.8445e-10
2.57589e-11
-1.94952e-10
2.46062e-11
-2.047e-10
2.2967e-11
-2.13462e-10
2.08068e-11
-2.20998e-10
1.80992e-11
-2.2706e-10
1.48281e-11
-2.31399e-10
1.09913e-11
-2.33777e-10
6.60546e-12
-2.33967e-10
1.69526e-12
-2.31764e-10
-3.69585e-12
-2.27e-10
-9.4717e-12
-2.19555e-10
-1.55425e-11
-2.09362e-10
-2.17867e-11
-1.96418e-10
-2.8062e-11
-1.80793e-10
-3.4208e-11
-1.62631e-10
-4.00533e-11
-1.42157e-10
-4.54186e-11
-1.1967e-10
-5.01295e-11
-9.55439e-11
-5.40227e-11
-7.02076e-11
-5.69584e-11
-4.41442e-11
-5.8828e-11
-1.78589e-11
-5.95603e-11
8.12693e-12
-5.91183e-11
3.33035e-11
-5.75218e-11
5.71898e-11
-5.48298e-11
7.93516e-11
-5.11428e-11
9.9418e-11
-4.65935e-11
1.17091e-10
-4.13419e-11
1.32151e-10
-3.55647e-11
1.44461e-10
-2.94462e-11
1.53964e-10
-2.317e-11
1.60683e-10
-1.69087e-11
1.64707e-10
-1.08208e-11
1.66185e-10
-5.04219e-12
1.65319e-10
3.10389e-13
1.62342e-10
5.15336e-12
1.57514e-10
9.42168e-12
1.5111e-10
1.30777e-11
1.43414e-10
1.61065e-11
1.34701e-10
1.85123e-11
1.2524e-10
2.03161e-11
1.15281e-10
2.15511e-11
1.05052e-10
2.22621e-11
9.4762e-11
2.25017e-11
8.45916e-11
2.23251e-11
7.46956e-11
2.17911e-11
6.52018e-11
2.09585e-11
5.62168e-11
1.9883e-11
4.78178e-11
1.86195e-11
4.00684e-11
1.72185e-11
3.29981e-11
1.5723e-11
2.66369e-11
1.41754e-11
2.09887e-11
1.2606e-11
1.6045e-11
1.10509e-11
1.17897e-11
9.52664e-12
8.19447e-12
8.05969e-12
5.23382e-12
6.6616e-12
2.86069e-12
5.34708e-12
1.02829e-12
4.12935e-12
-3.05528e-13
3.01797e-12
-1.19964e-12
2.02214e-12
-1.70042e-12
1.15025e-12
-1.86868e-12
4.05195e-13
-1.76139e-12
-2.03172e-13
-1.44652e-12
-6.59035e-13
-1.02012e-12
-9.12386e-13
-6.02265e-13
-8.7828e-13
-3.20292e-13
-5.90959e-13
-9.83975e-13
-6.56591e-14
5.98232e-13
-1.31898e-13
1.39072e-12
-4.34412e-13
2.61002e-12
-1.0846e-12
3.51863e-12
-2.03954e-12
3.97431e-12
-3.23265e-12
4.26571e-12
-4.63803e-12
4.6713e-12
-6.27423e-12
5.30246e-12
-8.18401e-12
6.16385e-12
-1.04201e-11
7.22804e-12
-1.30359e-11
8.46611e-12
-1.60832e-11
9.85736e-12
-1.96098e-11
1.13866e-11
-2.36595e-11
1.30421e-11
-2.82711e-11
1.48132e-11
-3.34791e-11
1.66878e-11
-3.93132e-11
1.86525e-11
-4.57978e-11
2.06904e-11
-5.29514e-11
2.27816e-11
-6.07844e-11
2.49024e-11
-6.92975e-11
2.70245e-11
-7.84808e-11
2.91155e-11
-8.83123e-11
3.1138e-11
-9.87571e-11
3.30496e-11
-1.09765e-10
3.48025e-11
-1.21269e-10
3.63444e-11
-1.33185e-10
3.76181e-11
-1.45407e-10
3.85626e-11
-1.57809e-10
3.91138e-11
-1.70246e-10
3.9205e-11
-1.82549e-10
3.87684e-11
-1.94526e-10
3.77368e-11
-2.05964e-10
3.60455e-11
-2.16631e-10
3.36352e-11
-2.26278e-10
3.04542e-11
-2.3464e-10
2.64625e-11
-2.41448e-10
2.16358e-11
-2.46426e-10
1.59697e-11
-2.49309e-10
9.48805e-12
-2.4984e-10
2.22597e-12
-2.47786e-10
-5.74874e-12
-2.42956e-10
-1.43011e-11
-2.35205e-10
-2.32931e-11
-2.24447e-10
-3.25442e-11
-2.10668e-10
-4.18407e-11
-1.93933e-10
-5.09434e-11
-1.74395e-10
-5.95922e-11
-1.52293e-10
-6.75202e-11
-1.27958e-10
-7.44643e-11
-1.01801e-10
-8.018e-11
-7.43045e-11
-8.44556e-11
-4.60008e-11
-8.71304e-11
-1.74637e-11
-8.80951e-11
1.07229e-11
-8.73019e-11
3.79869e-11
-8.47835e-11
6.37913e-11
-8.0633e-11
8.76546e-11
-7.50055e-11
1.09167e-10
-6.81059e-11
1.28006e-10
-6.0179e-11
1.43935e-10
-5.14935e-11
1.56817e-10
-4.23283e-11
1.66605e-10
-3.29587e-11
1.73337e-10
-2.36429e-11
1.7713e-10
-1.46148e-11
1.78163e-10
-6.07583e-12
1.7667e-10
1.80262e-12
1.7292e-10
8.90115e-12
1.6721e-10
1.51301e-11
1.59847e-10
2.04381e-11
1.51146e-10
2.48071e-11
1.41412e-10
2.82472e-11
1.30935e-10
3.07933e-11
1.19987e-10
3.24997e-11
1.08815e-10
3.34345e-11
9.76367e-11
3.36786e-11
8.66458e-11
3.33161e-11
7.60036e-11
3.24339e-11
6.58414e-11
3.11184e-11
5.62708e-11
2.94556e-11
4.73642e-11
2.75224e-11
3.91882e-11
2.53982e-11
3.17711e-11
2.31383e-11
2.51354e-11
2.0809e-11
1.92789e-11
1.84595e-11
1.41954e-11
1.61321e-11
9.86149e-12
1.38623e-11
6.23984e-12
1.16778e-11
3.29737e-12
9.60432e-12
9.82086e-13
7.6629e-12
-7.5636e-13
5.86656e-12
-1.96725e-12
4.23132e-12
-2.71626e-12
2.76736e-12
-3.04983e-12
1.48345e-12
-3.02953e-12
3.8521e-13
-2.71884e-12
-5.15717e-13
-2.18351e-12
-1.19172e-12
-1.5245e-12
-1.57289e-12
-8.80035e-13
-1.52819e-12
-4.09244e-13
-1.05948e-12
-1.39196e-12
-1.20436e-13
7.18165e-13
-1.66368e-13
1.43594e-12
-2.65561e-13
2.70885e-12
-5.9998e-13
3.85286e-12
-1.23636e-12
4.61034e-12
-2.17124e-12
5.1997e-12
-3.38478e-12
5.88318e-12
-4.87888e-12
6.79431e-12
-6.68035e-12
7.96296e-12
-8.82968e-12
9.37539e-12
-1.13753e-11
1.10103e-11
-1.43666e-11
1.28475e-11
-1.78519e-11
1.48707e-11
-2.18768e-11
1.70659e-11
-2.64831e-11
1.94185e-11
-3.17084e-11
2.19127e-11
-3.75857e-11
2.453e-11
-4.41434e-11
2.72486e-11
-5.14032e-11
3.00416e-11
-5.93789e-11
3.28775e-11
-6.80751e-11
3.57195e-11
-7.74854e-11
3.85246e-11
-8.75921e-11
4.12436e-11
-9.83638e-11
4.38205e-11
-1.09754e-10
4.61923e-11
-1.217e-10
4.82892e-11
-1.34117e-10
5.00355e-11
-1.46904e-10
5.13501e-11
-1.59936e-10
5.21466e-11
-1.73064e-10
5.23352e-11
-1.86118e-10
5.18239e-11
-1.98902e-10
5.05209e-11
-2.11193e-10
4.83376e-11
-2.22749e-10
4.51917e-11
-2.33306e-10
4.10112e-11
-2.42582e-10
3.57383e-11
-2.50283e-10
2.93363e-11
-2.56109e-10
2.17949e-11
-2.59763e-10
1.31414e-11
-2.60959e-10
3.42326e-12
-2.59425e-10
-7.28184e-12
-2.54935e-10
-1.87891e-11
-2.47313e-10
-3.09152e-11
-2.36441e-10
-4.34163e-11
-2.22281e-10
-5.60017e-11
-2.04881e-10
-6.83426e-11
-1.84389e-10
-8.00839e-11
-1.61057e-10
-9.08533e-11
-1.35234e-10
-1.00287e-10
-1.07372e-10
-1.08043e-10
-7.8003e-11
-1.13824e-10
-4.77164e-11
-1.17415e-10
-1.71651e-11
-1.18643e-10
1.30028e-11
-1.17468e-10
4.21426e-11
-1.13923e-10
6.96544e-11
-1.08145e-10
9.50028e-11
-1.00354e-10
1.17737e-10
-9.08403e-11
1.37506e-10
-7.99475e-11
1.54063e-10
-6.80511e-11
1.67272e-10
-5.55386e-11
1.77102e-10
-4.2789e-11
1.83616e-10
-3.01573e-11
1.86961e-10
-1.79609e-11
1.87355e-10
-6.47165e-12
1.85074e-10
4.08271e-12
1.80425e-10
1.35477e-11
1.73744e-10
2.18094e-11
1.65376e-10
2.88051e-11
1.55665e-10
3.45175e-11
1.44944e-10
3.89683e-11
1.33525e-10
4.22118e-11
1.21697e-10
4.43278e-11
1.0972e-10
4.54131e-11
9.78209e-11
4.55778e-11
8.61955e-11
4.49404e-11
7.50083e-11
4.36206e-11
6.4392e-11
4.17347e-11
5.44501e-11
3.93989e-11
4.52579e-11
3.67163e-11
3.6866e-11
3.37873e-11
2.93063e-11
3.06973e-11
2.25873e-11
2.75259e-11
1.6708e-11
2.43383e-11
1.16493e-11
2.11901e-11
7.37776e-12
1.81324e-11
3.85878e-12
1.51963e-11
1.04428e-12
1.24223e-11
-1.11994e-12
9.82696e-12
-2.68714e-12
7.43484e-12
-3.71757e-12
5.25943e-12
-4.26771e-12
3.31479e-12
-4.39669e-12
1.60899e-12
-4.16531e-12
1.5303e-13
-3.63558e-12
-1.04621e-12
-2.87846e-12
-1.94763e-12
-1.99445e-12
-2.45653e-12
-1.13584e-12
-2.38822e-12
-4.87825e-13
-1.70678e-12
-1.87986e-12
-1.63309e-13
8.8118e-13
-2.22151e-13
1.49384e-12
-2.0166e-13
2.68774e-12
-2.91256e-13
3.94205e-12
-6.28388e-13
4.94699e-12
-1.26277e-12
5.83305e-12
-2.20346e-12
6.82201e-12
-3.45847e-12
8.04675e-12
-5.04879e-12
9.55059e-12
-7.00962e-12
1.13341e-11
-9.38376e-12
1.33831e-11
-1.22191e-11
1.5682e-11
-1.55633e-11
1.82142e-11
-1.94628e-11
2.09645e-11
-2.39615e-11
2.39165e-11
-2.91003e-11
2.70512e-11
-3.49162e-11
3.03463e-11
-4.14418e-11
3.37745e-11
-4.87035e-11
3.73031e-11
-5.67203e-11
4.08934e-11
-6.55021e-11
4.45002e-11
-7.50487e-11
4.80704e-11
-8.53485e-11
5.15431e-11
-9.63767e-11
5.48486e-11
-1.08093e-10
5.79082e-11
-1.2044e-10
6.06352e-11
-1.33339e-10
6.29348e-11
-1.46692e-10
6.47042e-11
-1.60378e-10
6.58341e-11
-1.7425e-10
6.62092e-11
-1.88136e-10
6.57111e-11
-2.01836e-10
6.42212e-11
-2.15122e-10
6.16235e-11
-2.27739e-10
5.78088e-11
-2.39408e-10
5.26797e-11
-2.49827e-10
4.61555e-11
-2.58673e-10
3.81816e-11
-2.65614e-10
2.87357e-11
-2.70313e-10
1.78413e-11
-2.7246e-10
5.57226e-12
-2.71709e-10
-8.03205e-12
-2.67802e-10
-2.26945e-11
-2.60512e-10
-3.82048e-11
-2.49678e-10
-5.42501e-11
-2.35224e-10
-7.04557e-11
-2.17172e-10
-8.63934e-11
-1.95662e-10
-1.01594e-10
-1.70947e-10
-1.1557e-10
-1.43407e-10
-1.27828e-10
-1.13534e-10
-1.37915e-10
-8.19242e-11
-1.45433e-10
-4.92669e-11
-1.5007e-10
-1.62745e-11
-1.51635e-10
1.62891e-11
-1.50032e-10
4.76923e-11
-1.45327e-10
7.72503e-11
-1.37704e-10
1.04358e-10
-1.27461e-10
1.28509e-10
-1.14993e-10
1.49322e-10
-1.00761e-10
1.66538e-10
-8.52678e-11
1.80027e-10
-6.90273e-11
1.89779e-10
-5.25407e-11
1.95893e-10
-3.62723e-11
1.98562e-10
-2.06314e-11
1.98055e-10
-5.96587e-12
1.94703e-10
7.43346e-12
1.88866e-10
1.93833e-11
1.80927e-10
2.97456e-11
1.71278e-10
3.8452e-11
1.60303e-10
4.54926e-11
1.48365e-10
5.09069e-11
1.35805e-10
5.4774e-11
1.22928e-10
5.72041e-11
1.1001e-10
5.83316e-11
9.7284e-11
5.83025e-11
8.49512e-11
5.72726e-11
7.31718e-11
5.53978e-11
6.20812e-11
5.28288e-11
5.17652e-11
4.97111e-11
4.23025e-11
4.61814e-11
3.37294e-11
4.23595e-11
2.60685e-11
3.83588e-11
1.93182e-11
3.42736e-11
1.34697e-11
3.01849e-11
8.49076e-12
2.61692e-11
4.3453e-12
2.22764e-11
9.7948e-13
1.8561e-11
-1.64768e-12
1.50521e-11
-3.60797e-12
1.1785e-11
-4.94965e-12
8.78092e-12
-5.74755e-12
6.05642e-12
-6.05559e-12
3.62227e-12
-5.93654e-12
1.49128e-12
-5.45202e-12
-3.32698e-13
-4.66383e-12
-1.83361e-12
-3.65331e-12
-2.96244e-12
-2.51488e-12
-3.59656e-12
-1.41174e-12
-3.49201e-12
-5.77004e-13
-2.54225e-12
-2.45775e-12
-1.39528e-13
1.02023e-12
-1.49141e-13
1.50189e-12
-5.27833e-15
2.54282e-12
1.20105e-13
3.81603e-12
6.13367e-14
5.00514e-12
-2.6891e-13
6.1621e-12
-9.04498e-13
7.45551e-12
-1.86897e-12
9.00853e-12
-3.18665e-12
1.08657e-11
-4.89195e-12
1.30376e-11
-7.02764e-12
1.55179e-11
-9.6391e-12
1.8293e-11
-1.27753e-11
2.13497e-11
-1.64841e-11
2.46724e-11
-2.08117e-11
2.82434e-11
-2.58029e-11
3.20421e-11
-3.14993e-11
3.60429e-11
-3.79389e-11
4.02141e-11
-4.51543e-11
4.45179e-11
-5.31709e-11
4.8909e-11
-6.20058e-11
5.33344e-11
-7.16666e-11
5.77314e-11
-8.21505e-11
6.20275e-11
-9.3441e-11
6.61392e-11
-1.05506e-10
6.99729e-11
-1.18296e-10
7.34244e-11
-1.3174e-10
7.63791e-11
-1.45746e-10
7.87117e-11
-1.60198e-10
8.02879e-11
-1.74953e-10
8.09653e-11
-1.89839e-10
8.05971e-11
-2.04652e-10
7.90341e-11
-2.19158e-10
7.61286e-11
-2.33088e-10
7.17392e-11
-2.46147e-10
6.5737e-11
-2.58005e-10
5.80128e-11
-2.68311e-10
4.84866e-11
-2.76691e-10
3.71166e-11
-2.82767e-10
2.39191e-11
-2.86139e-10
8.94607e-12
-2.86461e-10
-7.70885e-12
-2.83374e-10
-2.57811e-11
-2.7659e-10
-4.49873e-11
-2.6589e-10
-6.49484e-11
-2.51148e-10
-8.51981e-11
-2.32347e-10
-1.05194e-10
-2.09605e-10
-1.24338e-10
-1.83181e-10
-1.41993e-10
-1.53484e-10
-1.57525e-10
-1.21069e-10
-1.70328e-10
-8.6624e-11
-1.79877e-10
-5.09185e-11
-1.85776e-10
-1.48058e-11
-1.87749e-10
2.08236e-11
-1.85663e-10
5.5114e-11
-1.79619e-10
8.72683e-11
-1.6986e-10
1.16588e-10
-1.56782e-10
1.42501e-10
-1.40907e-10
1.64584e-10
-1.22843e-10
1.82564e-10
-1.03247e-10
1.96323e-10
-8.27862e-11
2.05886e-10
-6.21047e-11
2.11404e-10
-4.17914e-11
2.13131e-10
-2.23602e-11
2.114e-10
-4.23459e-12
2.06625e-10
1.22076e-11
1.99226e-10
2.67803e-11
1.89655e-10
3.93152e-11
1.78359e-10
4.97468e-11
1.65772e-10
5.80809e-11
1.52296e-10
6.43821e-11
1.38305e-10
6.87657e-11
1.24127e-10
7.13812e-11
1.10051e-10
7.24072e-11
9.63203e-11
7.20337e-11
8.31362e-11
7.04582e-11
7.06551e-11
6.78754e-11
5.90066e-11
6.44782e-11
4.82678e-11
6.04456e-11
3.85032e-11
5.59441e-11
2.9741e-11
5.11212e-11
2.19898e-11
4.61111e-11
1.52331e-11
4.10274e-11
9.44341e-12
3.5974e-11
4.58658e-12
3.10266e-11
6.07802e-13
2.62553e-11
-2.5427e-12
2.17109e-11
-4.93367e-12
1.74439e-11
-6.62891e-12
1.34794e-11
-7.69411e-12
9.84662e-12
-8.19893e-12
6.56096e-12
-8.2068e-12
3.62818e-12
-7.78326e-12
1.06488e-12
-6.99231e-12
-1.12719e-12
-5.8973e-12
-2.92603e-12
-4.57956e-12
-4.28122e-12
-3.13898e-12
-5.03478e-12
-1.75445e-12
-4.87346e-12
-6.81541e-13
-3.61572e-12
-3.13981e-12
-5.54355e-14
1.07469e-12
7.56381e-14
1.36878e-12
3.98372e-13
2.21885e-12
7.55262e-13
3.45846e-12
9.7757e-13
4.78212e-12
9.59517e-13
6.17879e-12
6.45025e-13
7.76785e-12
5.07481e-15
9.64606e-12
-9.96227e-13
1.18651e-11
-2.39576e-12
1.4436e-11
-4.23956e-12
1.73611e-11
-6.57216e-12
2.06248e-11
-9.44611e-12
2.42225e-11
-1.29103e-11
2.81354e-11
-1.70151e-11
3.23474e-11
-2.18095e-11
3.68365e-11
-2.73414e-11
4.15748e-11
-3.36552e-11
4.65274e-11
-4.07901e-11
5.16521e-11
-4.878e-11
5.68986e-11
-5.76509e-11
6.22058e-11
-6.74208e-11
6.75023e-11
-7.8097e-11
7.27042e-11
-8.96734e-11
7.77155e-11
-1.02128e-10
8.24273e-11
-1.15422e-10
8.67179e-11
-1.29494e-10
9.0452e-11
-1.44262e-10
9.34807e-11
-1.59616e-10
9.56431e-11
-1.75419e-10
9.67683e-11
-1.915e-10
9.66775e-11
-2.07653e-10
9.5187e-11
-2.23637e-10
9.21122e-11
-2.39172e-10
8.72732e-11
-2.53939e-10
8.05029e-11
-2.67582e-10
7.16553e-11
-2.79709e-10
6.06149e-11
-2.89901e-10
4.73103e-11
-2.97709e-10
3.17283e-11
-3.02713e-10
1.39506e-11
-3.04425e-10
-5.99563e-12
-3.02438e-10
-2.77667e-11
-2.96376e-10
-5.10482e-11
-2.85937e-10
-7.53865e-11
-2.70922e-10
-1.00214e-10
-2.51259e-10
-1.24858e-10
-2.27034e-10
-1.48562e-10
-1.98506e-10
-1.70521e-10
-1.6612e-10
-1.8991e-10
-1.305e-10
-2.05949e-10
-9.24331e-11
-2.17945e-10
-5.28592e-11
-2.25352e-10
-1.28048e-11
-2.27805e-10
2.6717e-11
-2.25186e-10
6.46657e-11
-2.17569e-10
1.00094e-10
-2.0529e-10
1.32182e-10
-1.88871e-10
1.60271e-10
-1.68996e-10
1.83887e-10
-1.46458e-10
2.02748e-10
-1.22105e-10
2.16754e-10
-9.67932e-11
2.25982e-10
-7.13339e-11
2.30654e-10
-4.64645e-11
2.31101e-10
-2.28083e-11
2.2777e-10
-9.04677e-13
2.21142e-10
1.88338e-11
2.11741e-10
3.61818e-11
2.00096e-10
5.09614e-11
1.86728e-10
6.31168e-11
1.72127e-10
7.26812e-11
1.56749e-10
7.97591e-11
1.40999e-10
8.45129e-11
1.25237e-10
8.71443e-11
1.09763e-10
8.78812e-11
9.48291e-11
8.69673e-11
8.06342e-11
8.46511e-11
6.7334e-11
8.11745e-11
5.50418e-11
7.67701e-11
4.38261e-11
7.16588e-11
3.37327e-11
6.60331e-11
2.47749e-11
6.00778e-11
1.69426e-11
5.39447e-11
1.02031e-11
4.7767e-11
4.51894e-12
4.16579e-11
-1.66174e-13
3.57101e-11
-3.91464e-12
3.00033e-11
-6.80097e-12
2.45999e-11
-8.89075e-12
1.95347e-11
-1.02596e-11
1.48498e-11
-1.09826e-11
1.05684e-11
-1.11274e-11
6.70718e-12
-1.07727e-11
3.27697e-12
-9.98121e-12
2.75655e-13
-8.82484e-12
-2.28606e-12
-7.36447e-12
-4.38743e-12
-5.68055e-12
-5.96605e-12
-3.88406e-12
-6.8315e-12
-2.16195e-12
-6.59591e-12
-8.14762e-13
-4.96445e-12
-3.95367e-12
7.51324e-14
9.98144e-13
4.2171e-13
1.02035e-12
9.91447e-13
1.64823e-12
1.62377e-12
2.82569e-12
2.15477e-12
4.25038e-12
2.4722e-12
5.85991e-12
2.51188e-12
7.72626e-12
2.22721e-12
9.929e-12
1.57958e-12
1.25117e-11
5.24943e-13
1.54901e-11
-9.76452e-13
1.88618e-11
-2.98122e-12
2.26284e-11
-5.53904e-12
2.67787e-11
-8.70598e-12
3.13011e-11
-1.25362e-11
3.61771e-11
-1.70853e-11
4.13854e-11
-2.2407e-11
4.68962e-11
-2.85533e-11
5.26729e-11
-3.55722e-11
5.86706e-11
-4.35068e-11
6.48335e-11
-5.23947e-11
7.10947e-11
-6.22656e-11
7.73741e-11
-7.3139e-11
8.35777e-11
-8.50215e-11
8.95974e-11
-9.79041e-11
9.53096e-11
-1.1176e-10
1.00574e-10
-1.26543e-10
1.05235e-10
-1.42181e-10
1.09119e-10
-1.58576e-10
1.12038e-10
-1.75597e-10
1.13788e-10
-1.93076e-10
1.14157e-10
-2.1081e-10
1.12921e-10
-2.2855e-10
1.09852e-10
-2.46004e-10
1.04727e-10
-2.62833e-10
9.73305e-11
-2.78647e-10
8.74695e-11
-2.93012e-10
7.49808e-11
-3.05453e-10
5.97516e-11
-3.15458e-10
4.17339e-11
-3.22487e-10
2.09799e-11
-3.26021e-10
-2.46036e-12
-3.25501e-10
-2.8285e-11
-3.20451e-10
-5.60964e-11
-3.10463e-10
-8.53741e-11
-2.95237e-10
-1.15439e-10
-2.74623e-10
-1.45471e-10
-2.48656e-10
-1.74529e-10
-2.17587e-10
-2.01589e-10
-1.81898e-10
-2.256e-10
-1.42304e-10
-2.45543e-10
-9.97395e-11
-2.60511e-10
-5.53253e-11
-2.69767e-10
-1.02654e-11
-2.72866e-10
3.41577e-11
-2.69611e-10
7.66914e-11
-2.60104e-10
1.16198e-10
-2.44797e-10
1.51704e-10
-2.24376e-10
1.8244e-10
-1.99731e-10
2.07874e-10
-1.71892e-10
2.27716e-10
-1.41948e-10
2.41905e-10
-1.10984e-10
2.50588e-10
-8.00173e-11
2.54081e-10
-4.99584e-11
2.52836e-10
-2.1564e-11
2.47427e-10
4.50368e-12
2.38433e-10
2.78272e-11
2.26505e-10
4.81109e-11
2.12273e-10
6.51945e-11
1.96343e-10
7.90472e-11
1.79279e-10
8.97443e-11
1.61593e-10
9.74457e-11
1.43731e-10
1.02373e-10
1.2608e-10
1.04796e-10
1.08957e-10
1.05005e-10
9.26188e-11
1.03307e-10
7.72591e-11
1.00008e-10
6.30263e-11
9.5405e-11
5.00149e-11
8.97795e-11
3.8283e-11
8.33904e-11
2.78443e-11
7.64704e-11
1.86993e-11
6.92242e-11
1.08127e-11
6.18307e-11
4.13598e-12
5.44435e-11
-1.39294e-12
4.71863e-11
-5.84644e-12
4.01659e-11
-9.30432e-12
3.3464e-11
-1.18481e-11
2.71449e-11
-1.3563e-11
2.12522e-11
-1.45311e-11
1.58214e-11
-1.48386e-11
1.08773e-11
-1.45615e-11
6.4292e-12
-1.3773e-11
2.48839e-12
-1.25519e-11
-9.46874e-13
-1.09628e-11
-3.87507e-12
-9.07609e-12
-6.27548e-12
-6.97099e-12
-8.0705e-12
-4.75749e-12
-9.04175e-12
-2.64256e-12
-8.71025e-12
-9.68063e-13
-6.6403e-12
-4.92319e-12
2.31328e-13
7.65413e-13
8.5575e-13
3.95069e-13
1.73841e-12
7.65444e-13
2.70009e-12
1.86387e-12
3.58048e-12
3.36925e-12
4.26925e-12
5.16981e-12
4.69523e-12
7.29897e-12
4.80718e-12
9.81631e-12
4.55925e-12
1.27594e-11
3.90454e-12
1.61445e-11
2.78952e-12
1.99758e-11
1.16294e-12
2.42533e-11
-1.02784e-12
2.8968e-11
-3.84206e-12
3.41145e-11
-7.34298e-12
3.96777e-11
-1.15921e-11
4.56342e-11
-1.66515e-11
5.19549e-11
-2.25817e-11
5.86025e-11
-2.94407e-11
6.55295e-11
-3.72831e-11
7.26768e-11
-4.61595e-11
7.99719e-11
-5.6113e-11
8.73278e-11
-6.71776e-11
9.46417e-11
-7.9375e-11
1.01794e-10
-9.27122e-11
1.08647e-10
-1.07179e-10
1.15042e-10
-1.22746e-10
1.20802e-10
-1.39355e-10
1.25729e-10
-1.56922e-10
1.29604e-10
-1.75327e-10
1.32193e-10
-1.94412e-10
1.33242e-10
-2.13974e-10
1.32483e-10
-2.33764e-10
1.29642e-10
-2.53477e-10
1.2444e-10
-2.72753e-10
1.16606e-10
-2.91169e-10
1.05885e-10
-3.08244e-10
9.20557e-11
-3.23437e-10
7.49444e-11
-3.36152e-10
5.44494e-11
-3.45761e-10
3.05893e-11
-3.5163e-10
3.41029e-12
-3.53043e-10
-2.68701e-11
-3.49401e-10
-5.97371e-11
-3.40148e-10
-9.4626e-11
-3.24848e-10
-1.30738e-10
-3.03238e-10
-1.6708e-10
-2.75276e-10
-2.02491e-10
-2.41188e-10
-2.3568e-10
-2.01491e-10
-2.65298e-10
-1.57011e-10
-2.90023e-10
-1.0886e-10
-3.08661e-10
-5.8378e-11
-3.20249e-10
-7.07839e-12
-3.24167e-10
4.34375e-11
-3.20128e-10
9.16708e-11
-3.08338e-10
1.36217e-10
-2.89344e-10
1.75897e-10
-2.64056e-10
2.09809e-10
-2.33644e-10
2.37358e-10
-1.99441e-10
2.58253e-10
-1.62845e-10
2.72494e-10
-1.25226e-10
2.80328e-10
-8.78538e-11
2.82211e-10
-5.18421e-11
2.78733e-10
-1.80865e-11
2.70639e-10
1.25997e-11
2.58662e-10
3.98035e-11
2.43585e-10
6.31869e-11
2.26166e-10
8.26132e-11
2.07114e-10
9.80984e-11
1.87081e-10
1.09779e-10
1.66638e-10
1.17889e-10
1.46282e-10
1.22731e-10
1.26423e-10
1.24655e-10
1.07391e-10
1.24036e-10
8.94495e-11
1.21251e-10
7.27808e-11
1.16676e-10
5.75172e-11
1.10668e-10
4.37259e-11
1.03569e-10
3.14493e-11
9.56686e-11
2.0676e-11
8.72438e-11
1.13735e-11
7.85267e-11
3.48208e-12
6.97205e-11
-3.07048e-12
6.09952e-11
-8.37474e-12
5.24909e-11
-1.25193e-11
4.43115e-11
-1.56008e-11
3.6549e-11
-1.77193e-11
2.92657e-11
-1.89768e-11
2.25109e-11
-1.9472e-11
1.63155e-11
-1.92825e-11
1.06922e-11
-1.85055e-11
5.65404e-12
-1.72143e-11
1.20122e-12
-1.54905e-11
-2.66988e-12
-1.34046e-11
-5.95958e-12
-1.10296e-11
-8.65077e-12
-8.44244e-12
-1.06583e-11
-5.75739e-12
-1.17267e-11
-3.19525e-12
-1.1273e-11
-1.14585e-12
-8.68795e-12
-6.06777e-12
4.12168e-13
3.5247e-13
1.35876e-12
-5.51002e-13
2.60756e-12
-4.82741e-13
3.95611e-12
5.1534e-13
5.23559e-12
2.08904e-12
6.34011e-12
4.06434e-12
7.19565e-12
6.44299e-12
7.7473e-12
9.26488e-12
7.94446e-12
1.25626e-11
7.73567e-12
1.6353e-11
7.06663e-12
2.06437e-11
5.88092e-12
2.54376e-11
4.11557e-12
3.07323e-11
1.70902e-12
3.65206e-11
-1.40374e-12
4.27902e-11
-5.29188e-12
4.95219e-11
-1.00279e-11
5.66903e-11
-1.5683e-11
6.42574e-11
-2.23278e-11
7.21746e-11
-3.0029e-11
8.03786e-11
-3.8852e-11
8.8795e-11
-4.88555e-11
9.73309e-11
-6.00902e-11
1.05876e-10
-7.2596e-11
1.14299e-10
-8.63997e-11
1.2245e-10
-1.01511e-10
1.30153e-10
-1.17919e-10
1.3721e-10
-1.35587e-10
1.43396e-10
-1.54447e-10
1.48465e-10
-1.74397e-10
1.52143e-10
-1.9529e-10
1.54136e-10
-2.16934e-10
1.54127e-10
-2.39078e-10
1.51787e-10
-2.61412e-10
1.46774e-10
-2.83556e-10
1.38749e-10
-3.05054e-10
1.27382e-10
-3.25376e-10
1.12377e-10
-3.43909e-10
9.34778e-11
-3.59969e-10
7.05104e-11
-3.72796e-10
4.34176e-11
-3.81625e-10
1.2241e-11
-3.85593e-10
-2.29002e-11
-3.83896e-10
-6.14323e-11
-3.75792e-10
-1.02727e-10
-3.60664e-10
-1.45864e-10
-3.38087e-10
-1.89659e-10
-3.07899e-10
-2.32681e-10
-2.7027e-10
-2.73309e-10
-2.25753e-10
-3.09815e-10
-1.753e-10
-3.40474e-10
-1.20252e-10
-3.63709e-10
-6.22647e-11
-3.78236e-10
-3.21239e-12
-3.8322e-10
5.49317e-11
-3.78272e-10
1.10237e-10
-3.63644e-10
1.6098e-10
-3.40088e-10
2.05727e-10
-3.08805e-10
2.43414e-10
-2.71332e-10
2.73376e-10
-2.29404e-10
2.95343e-10
-1.84812e-10
3.09405e-10
-1.3929e-10
3.15961e-10
-9.44105e-11
3.15638e-10
-5.15198e-11
3.09254e-10
-1.17037e-11
2.97727e-10
2.41257e-11
2.82001e-10
5.55264e-11
2.63029e-10
8.21583e-11
2.41719e-10
1.03926e-10
2.18901e-10
1.20916e-10
1.95326e-10
1.33356e-10
1.71633e-10
1.41581e-10
1.48369e-10
1.45999e-10
1.25968e-10
1.47059e-10
1.04769e-10
1.45233e-10
8.50298e-11
1.40991e-10
6.69207e-11
1.34784e-10
5.05425e-11
1.27048e-10
3.59463e-11
1.18163e-10
2.31248e-11
1.08488e-10
1.20502e-11
9.83201e-11
2.64205e-12
8.79356e-11
-5.17685e-12
7.75429e-11
-1.15264e-11
6.73427e-11
-1.65124e-11
5.74753e-11
-2.02463e-11
4.80484e-11
-2.286e-11
3.9166e-11
-2.44639e-11
3.08756e-11
-2.51734e-11
2.32222e-11
-2.50912e-11
1.62356e-11
-2.43223e-11
9.92483e-12
-2.29594e-11
4.29234e-12
-2.10891e-11
-6.67764e-13
-1.87942e-11
-4.96687e-12
-1.61454e-11
-8.60773e-12
-1.32161e-11
-1.15797e-11
-1.00863e-11
-1.37862e-11
-6.87887e-12
-1.49333e-11
-3.81754e-12
-1.43332e-11
-1.34912e-12
-1.11556e-11
-7.41536e-12
6.10342e-13
-2.57671e-13
1.91906e-12
-1.85817e-12
3.58749e-12
-2.15029e-12
5.37002e-12
-1.26729e-12
7.10291e-12
3.55485e-13
8.67089e-12
2.49597e-12
1.0004e-11
5.11027e-12
1.10434e-11
8.2264e-12
1.1736e-11
1.18706e-11
1.20273e-11
1.60616e-11
1.18599e-11
2.08103e-11
1.1173e-11
2.61235e-11
9.90156e-12
3.20032e-11
7.97528e-12
3.84467e-11
5.31964e-12
4.54457e-11
1.85712e-12
5.29841e-11
-2.48903e-12
6.10362e-11
-7.79957e-12
6.9568e-11
-1.41606e-11
7.85357e-11
-2.16568e-11
8.78748e-11
-3.03686e-11
9.75065e-11
-4.03722e-11
1.07334e-10
-5.1738e-11
1.17241e-10
-6.45274e-11
1.27088e-10
-7.87896e-11
1.36712e-10
-9.45584e-11
1.45922e-10
-1.11847e-10
1.54498e-10
-1.30643e-10
1.62192e-10
-1.50903e-10
1.68724e-10
-1.72546e-10
1.73785e-10
-1.95445e-10
1.77035e-10
-2.19421e-10
1.78104e-10
-2.44234e-10
1.76599e-10
-2.69571e-10
1.72109e-10
-2.95037e-10
1.64213e-10
-3.20149e-10
1.52493e-10
-3.44323e-10
1.36551e-10
-3.66876e-10
1.16032e-10
-3.87017e-10
9.06528e-11
-4.03844e-10
6.02461e-11
-4.16464e-10
2.48619e-11
-4.23761e-10
-1.55998e-11
-4.24724e-10
-6.04663e-11
-4.18361e-10
-1.09089e-10
-4.03804e-10
-1.60423e-10
-3.80396e-10
-2.13068e-10
-3.47796e-10
-2.65281e-10
-3.06076e-10
-3.15029e-10
-2.55801e-10
-3.60089e-10
-1.98069e-10
-3.98205e-10
-1.34507e-10
-4.27271e-10
-6.71848e-11
-4.45558e-10
1.55252e-12
-4.51957e-10
6.91668e-11
-4.45887e-10
1.3323e-10
-4.2771e-10
1.91577e-10
-3.98437e-10
2.42448e-10
-3.59678e-10
2.8458e-10
-3.13467e-10
3.17242e-10
-2.62066e-10
3.40212e-10
-2.07784e-10
3.53729e-10
-1.52805e-10
3.58396e-10
-9.90779e-11
3.55096e-10
-4.82204e-11
3.44902e-10
-1.51383e-12
3.29016e-10
4.0008e-11
3.08608e-10
7.59332e-11
2.84845e-10
1.05921e-10
2.58815e-10
1.29959e-10
2.31491e-10
1.48238e-10
2.0373e-10
1.61118e-10
1.76247e-10
1.69063e-10
1.49633e-10
1.72614e-10
1.24345e-10
1.72349e-10
1.00725e-10
1.68854e-10
7.9015e-11
1.62704e-10
5.93495e-11
1.54448e-10
4.18101e-11
1.44586e-10
2.64014e-11
1.33574e-10
1.30798e-11
1.21808e-10
1.76256e-12
1.09638e-10