/*--------------------------------*- C++ -*----------------------------------*\
| =========                 |                                                 |
| \\      /  F ield         | OpenFOAM: The Open Source CFD Toolbox           |
|  \\    /   O peration     | Version:  2312                                  |
|   \\  /    A nd           | Website:  www.openfoam.com                      |
|    \\/     M anipulation  |                                                 |
\*---------------------------------------------------------------------------*/
FoamFile
{
    version     2.0;
    format      ascii;
    arch        "LSB;label=32;scalar=64";
    class       volScalarField;
    location    "0.5";
    object      p;
}
// * * * * * * * * * * * * * * * * * * * * * * * * * * * * * * * * * * * * * //

dimensions      [1 -1 -2 0 0 0 0];

internalField   nonuniform List<scalar> 
10000
(
0
1.17959e-08
-2.8764e-07
-1.74683e-06
-4.03054e-06
-7.08782e-06
-1.09492e-05
-1.56864e-05
-2.13627e-05
-2.79655e-05
-3.53909e-05
-4.34787e-05
-5.21102e-05
-6.12967e-05
-7.11886e-05
-8.19949e-05
-9.38776e-05
-0.000106903
-0.000121083
-0.000136458
-0.000153142
-0.000171301
-0.000191111
-0.000212758
-0.000236486
-0.000262626
-0.000291557
-0.000323608
-0.000359013
-0.000397964
-0.000440734
-0.000487732
-0.000539421
-0.000596166
-0.000658154
-0.000725467
-0.000798242
-0.000876756
-0.000961367
-0.00105231
-0.00114949
-0.00125332
-0.00136386
-0.00148103
-0.00160482
-0.00173522
-0.00187205
-0.00201501
-0.00216398
-0.00231888
-0.00247921
-0.00264429
-0.00281346
-0.00298574
-0.00316001
-0.00333554
-0.00351125
-0.00368589
-0.00385793
-0.00402589
-0.00418855
-0.00434454
-0.00449284
-0.00463221
-0.00476173
-0.00488075
-0.00498846
-0.00508394
-0.00516693
-0.00523734
-0.00529525
-0.00534087
-0.00537432
-0.00539623
-0.0054072
-0.00540789
-0.00539909
-0.00538137
-0.00535604
-0.00532392
-0.00528583
-0.00524285
-0.005196
-0.00514645
-0.00509505
-0.00504312
-0.00499089
-0.00493903
-0.00488877
-0.00483957
-0.00479344
-0.00475028
-0.00471043
-0.00467441
-0.0046426
-0.0046161
-0.00459495
-0.004579
-0.0045681
-0.00456262
2.14948e-06
2.10095e-06
1.37915e-06
-1.16491e-07
-2.41321e-06
-5.42349e-06
-9.19314e-06
-1.38174e-05
-1.93569e-05
-2.57803e-05
-3.29462e-05
-4.06848e-05
-4.89105e-05
-5.76865e-05
-6.71906e-05
-7.76116e-05
-8.90614e-05
-0.000101571
-0.000115162
-0.00012991
-0.000145956
-0.000163463
-0.000182591
-0.000203539
-0.000226595
-0.000252133
-0.000280532
-0.000312083
-0.000346989
-0.000385476
-0.000427903
-0.000474755
-0.000526499
-0.000583443
-0.000645729
-0.000713474
-0.0007869
-0.000866342
-0.000952123
-0.00104448
-0.00114362
-0.00124929
-0.0013616
-0.00148073
-0.00160656
-0.00173893
-0.00187775
-0.00202274
-0.00217361
-0.0023303
-0.00249236
-0.00265887
-0.00282911
-0.00300228
-0.00317715
-0.00335317
-0.00352905
-0.00370361
-0.00387537
-0.00404285
-0.00420493
-0.00436022
-0.00450773
-0.00464632
-0.00477496
-0.00489313
-0.00499961
-0.00509413
-0.00517614
-0.00524561
-0.00530258
-0.00534728
-0.00537983
-0.00540089
-0.00541103
-0.00541074
-0.00540107
-0.00538269
-0.0053567
-0.00532393
-0.0052853
-0.00524163
-0.00519432
-0.00514438
-0.00509263
-0.00504002
-0.00498741
-0.00493524
-0.00488465
-0.00483532
-0.00478863
-0.00474477
-0.00470449
-0.00466866
-0.00463758
-0.00461119
-0.00458998
-0.00457434
-0.0045638
-0.0045585
5.2754e-06
4.87316e-06
3.84984e-06
2.20485e-06
-8.9388e-08
-3.04298e-06
-6.73172e-06
-1.12513e-05
-1.66422e-05
-2.28452e-05
-2.97215e-05
-3.71339e-05
-4.50327e-05
-5.3486e-05
-6.26339e-05
-7.26089e-05
-8.34885e-05
-9.53127e-05
-0.000108139
-0.000122078
-0.000137279
-0.000153901
-0.000172111
-0.000192132
-0.000214269
-0.000238893
-0.000266358
-0.000296949
-0.00033091
-0.000368537
-0.000410244
-0.000456525
-0.000507824
-0.000564454
-0.000626611
-0.000694497
-0.000768399
-0.000848645
-0.000935511
-0.00102918
-0.00112975
-0.00123714
-0.00135137
-0.00147253
-0.00160055
-0.00173517
-0.00187632
-0.00202381
-0.00217719
-0.0023362
-0.00250054
-0.00266932
-0.0028416
-0.0030166
-0.0031933
-0.00337086
-0.0035481
-0.00372382
-0.00389672
-0.0040652
-0.00422814
-0.00438408
-0.00453202
-0.00467105
-0.00479994
-0.00491797
-0.00502406
-0.00511788
-0.00519917
-0.00526782
-0.00532373
-0.00536714
-0.00539823
-0.00541763
-0.00542605
-0.00542411
-0.00541265
-0.00539259
-0.00536499
-0.00533053
-0.0052905
-0.00524518
-0.00519644
-0.00514484
-0.00509174
-0.00503776
-0.00498395
-0.00493107
-0.00487911
-0.00482878
-0.00478133
-0.00473681
-0.00469627
-0.00465992
-0.00462828
-0.00460146
-0.00457984
-0.00456418
-0.00455421
-0.00454914
8.54007e-06
7.98427e-06
6.80908e-06
5.09812e-06
2.8078e-06
-1.16896e-07
-3.7605e-06
-8.19777e-06
-1.34429e-05
-1.94289e-05
-2.60413e-05
-3.31755e-05
-4.07902e-05
-4.89241e-05
-5.76663e-05
-6.7109e-05
-7.73209e-05
-8.8362e-05
-0.000100318
-0.000113319
-0.000127523
-0.000143096
-0.000160211
-0.000179087
-0.000200021
-0.000223371
-0.000249504
-0.000278738
-0.00031137
-0.000347741
-0.000388293
-0.000433531
-0.000483927
-0.000539845
-0.000601552
-0.000669308
-0.00074343
-0.000824258
-0.00091204
-0.00100691
-0.0011089
-0.00121798
-0.00133409
-0.0014573
-0.00158763
-0.0017248
-0.00186854
-0.00201875
-0.00217499
-0.00233683
-0.00250401
-0.0026757
-0.00285081
-0.00302848
-0.00320783
-0.00338807
-0.00356802
-0.00374635
-0.00392177
-0.00409268
-0.00425785
-0.00441587
-0.0045656
-0.00470615
-0.00483621
-0.00495483
-0.0050611
-0.00515473
-0.00523557
-0.00530332
-0.00535784
-0.00539955
-0.00542881
-0.00544609
-0.00545187
-0.00544737
-0.00543322
-0.0054105
-0.00538024
-0.00534318
-0.00530051
-0.00525269
-0.00520145
-0.00514741
-0.00509212
-0.00503605
-0.0049801
-0.00492529
-0.00487152
-0.00481988
-0.00477088
-0.00472541
-0.00468404
-0.00464708
-0.0046147
-0.00458755
-0.00456551
-0.0045493
-0.00453916
-0.00453411
1.20845e-05
1.14711e-05
1.02586e-05
8.51862e-06
6.2043e-06
3.25867e-06
-3.80404e-07
-4.75755e-06
-9.87261e-06
-1.56565e-05
-2.20204e-05
-2.88767e-05
-3.61756e-05
-4.39259e-05
-5.21831e-05
-6.10164e-05
-7.04886e-05
-8.0668e-05
-9.16588e-05
-0.00010361
-0.00011669
-0.000131055
-0.000146854
-0.000164286
-0.00018365
-0.00020533
-0.000229728
-0.000257198
-0.000288065
-0.000322711
-0.000361631
-0.000405385
-0.00045449
-0.000509344
-0.000570265
-0.00063758
-0.000711668
-0.000792904
-0.000881505
-0.000977506
-0.0010809
-0.00119166
-0.00130976
-0.00143523
-0.00156809
-0.00170804
-0.00185466
-0.00200786
-0.00216739
-0.00233268
-0.00250326
-0.00267836
-0.00285693
-0.00303816
-0.00322128
-0.00340544
-0.00358945
-0.00377179
-0.00395115
-0.00412593
-0.00429476
-0.00445625
-0.00460903
-0.00475208
-0.00488409
-0.00500408
-0.00511116
-0.00520497
-0.00528535
-0.0053521
-0.00540508
-0.00544479
-0.00547152
-0.00548602
-0.00548844
-0.00548034
-0.00546253
-0.00543635
-0.00540233
-0.00536163
-0.00531498
-0.0052639
-0.00520921
-0.0051519
-0.00509331
-0.00503433
-0.00497578
-0.00491849
-0.00486203
-0.00480821
-0.00475732
-0.00471046
-0.00466773
-0.00462964
-0.00459636
-0.00456833
-0.00454581
-0.00452904
-0.00451858
-0.00451354
1.60009e-05
1.53983e-05
1.41785e-05
1.2396e-05
1.0014e-05
7.0003e-06
3.33532e-06
-1.00494e-06
-6.02669e-06
-1.16192e-05
-1.77201e-05
-2.42556e-05
-3.11763e-05
-3.848e-05
-4.61996e-05
-5.43761e-05
-6.30534e-05
-7.23034e-05
-8.22515e-05
-9.30607e-05
-0.000104881
-0.000117825
-0.000132005
-0.000147627
-0.000165034
-0.000184655
-0.000206909
-0.000232158
-0.000260767
-0.000293205
-0.000330059
-0.000371939
-0.000419362
-0.00047274
-0.000532478
-0.000599034
-0.000672872
-0.000754347
-0.000843615
-0.000940636
-0.00104539
-0.0011579
-0.00127821
-0.00140619
-0.00154174
-0.00168468
-0.00183458
-0.00199126
-0.00215454
-0.00232376
-0.0024982
-0.00267723
-0.00286002
-0.00304585
-0.00323394
-0.00342326
-0.0036126
-0.00380041
-0.00398528
-0.00416549
-0.00433939
-0.00450556
-0.00466261
-0.00480929
-0.0049442
-0.00506631
-0.00517475
-0.00526908
-0.00534907
-0.00541475
-0.00546595
-0.00550322
-0.00552666
-0.00553735
-0.00553583
-0.00552339
-0.00550096
-0.00546999
-0.00543096
-0.0053857
-0.00533422
-0.00527866
-0.00521928
-0.00515818
-0.00509557
-0.00503259
-0.00497038
-0.0049096
-0.00485037
-0.00479406
-0.00474084
-0.00469186
-0.00464735
-0.00460746
-0.00457282
-0.00454348
-0.00452036
-0.00450327
-0.0044922
-0.00448706
2.0306e-05
1.97451e-05
1.85162e-05
1.6667e-05
1.41957e-05
1.10825e-05
7.37995e-06
3.06686e-06
-1.94762e-06
-7.33244e-06
-1.3136e-05
-1.9312e-05
-2.58261e-05
-3.26681e-05
-3.98338e-05
-4.73203e-05
-5.51532e-05
-6.34192e-05
-7.22605e-05
-8.18185e-05
-9.21821e-05
-0.000103408
-0.000115613
-0.000129062
-0.000144155
-0.000161333
-0.000180996
-0.000203528
-0.000229395
-0.000259192
-0.000293574
-0.000333137
-0.000378379
-0.000429786
-0.000487926
-0.000553411
-0.000626736
-0.000708181
-0.000797855
-0.000895771
-0.00100192
-0.00111633
-0.001239
-0.00136971
-0.00150825
-0.00165453
-0.00180823
-0.00196893
-0.00213632
-0.00230978
-0.0024886
-0.0026723
-0.00286023
-0.00305165
-0.00324579
-0.00344149
-0.00363758
-0.00383246
-0.00402441
-0.00421154
-0.004392
-0.00456427
-0.00472691
-0.00487838
-0.00501715
-0.00514222
-0.00525267
-0.00534799
-0.00542773
-0.00549203
-0.00554086
-0.00557493
-0.00559474
-0.00560094
-0.00559465
-0.00557664
-0.00554859
-0.0055117
-0.00546652
-0.00541521
-0.00535812
-0.00529706
-0.00523216
-0.00516579
-0.00509828
-0.00503058
-0.00496404
-0.00489906
-0.00483641
-0.00477678
-0.00472088
-0.00466912
-0.00462201
-0.00458002
-0.00454391
-0.00451341
-0.00448926
-0.0044716
-0.00446011
-0.00445468
2.49802e-05
2.447e-05
2.32293e-05
2.13222e-05
1.8759e-05
1.55684e-05
1.18162e-05
7.62095e-06
2.31707e-06
-2.74424e-06
-8.2397e-06
-1.40797e-05
-2.02267e-05
-2.66372e-05
-3.32478e-05
-4.00158e-05
-4.69689e-05
-5.42117e-05
-6.18669e-05
-7.00045e-05
-7.86391e-05
-8.78165e-05
-9.77182e-05
-0.000108682
-0.000121123
-0.000135443
-0.000152037
-0.000171374
-0.000194059
-0.000220778
-0.000252178
-0.000288825
-0.000331276
-0.000380185
-0.000436298
-0.000500313
-0.000572714
-0.00065375
-0.000743576
-0.000842304
-0.000949966
-0.00106639
-0.0011916
-0.00132536
-0.0014674
-0.00161754
-0.00177545
-0.00194055
-0.0021124
-0.00229055
-0.00247442
-0.00266359
-0.00285748
-0.00305536
-0.00325663
-0.00346013
-0.0036645
-0.00386801
-0.0040686
-0.00426423
-0.00445297
-0.00463303
-0.0048027
-0.0049602
-0.0051039
-0.0052329
-0.00534601
-0.0054425
-0.00552192
-0.00558456
-0.00563082
-0.00566111
-0.0056765
-0.00567725
-0.00566504
-0.00564054
-0.00560566
-0.00556152
-0.00550931
-0.00545061
-0.00538689
-0.00531874
-0.00524752
-0.00517476
-0.00510126
-0.00502803
-0.00495631
-0.00488653
-0.00481965
-0.0047561
-0.00469687
-0.00464183
-0.00459178
-0.00454718
-0.004509
-0.0044772
-0.00445188
-0.00443331
-0.00442137
-0.0044159
3.00274e-05
2.9583e-05
2.83709e-05
2.6439e-05
2.38071e-05
2.05109e-05
1.66253e-05
1.22431e-05
7.35291e-06
2.29905e-06
-3.02994e-06
-8.65265e-06
-1.45261e-05
-2.05551e-05
-2.66185e-05
-3.26627e-05
-3.87298e-05
-4.49113e-05
-5.1258e-05
-5.77503e-05
-6.43711e-05
-7.122e-05
-7.85595e-05
-8.67542e-05
-9.61782e-05
-0.0001072
-0.00012026
-0.000135949
-0.000154969
-0.000178026
-0.000205748
-0.000238752
-0.000277754
-0.000323597
-0.000377143
-0.000439128
-0.000510082
-0.000590338
-0.000680122
-0.000779603
-0.000888829
-0.00100746
-0.00113557
-0.00127288
-0.00141898
-0.00157344
-0.00173586
-0.00190572
-0.00208257
-0.002266
-0.00245553
-0.00265079
-0.00285138
-0.00305665
-0.00326626
-0.00347896
-0.00369314
-0.00390691
-0.00411797
-0.00432403
-0.00452296
-0.00471256
-0.00489086
-0.00505594
-0.00520585
-0.00533951
-0.00545566
-0.00555346
-0.00563273
-0.00569365
-0.00573687
-0.00576282
-0.00577258
-0.00576698
-0.00574742
-0.0057152
-0.00567227
-0.00561972
-0.00555945
-0.00549213
-0.00542
-0.00534349
-0.00526461
-0.0051845
-0.00510418
-0.0050247
-0.0049467
-0.00487145
-0.00479947
-0.00473128
-0.00466752
-0.00460893
-0.00455563
-0.00450846
-0.00446798
-0.00443449
-0.00440807
-0.0043885
-0.00437584
-0.00436999
3.55154e-05
3.51895e-05
3.40584e-05
3.21463e-05
2.94594e-05
2.60416e-05
2.20102e-05
1.75243e-05
1.27056e-05
7.66865e-06
2.37929e-06
-3.16636e-06
-8.87735e-06
-1.45895e-05
-2.01454e-05
-2.55069e-05
-3.07047e-05
-3.57669e-05
-4.06496e-05
-4.52797e-05
-4.96705e-05
-5.39941e-05
-5.85498e-05
-6.36711e-05
-6.9685e-05
-7.6969e-05
-8.60381e-05
-9.75584e-05
-0.000112267
-0.000130881
-0.000154101
-0.000182685
-0.000217523
-0.000259598
-0.000309867
-0.000369159
-0.000438133
-0.000517245
-0.000606773
-0.000706877
-0.000817593
-0.000938947
-0.0010705
-0.00121187
-0.00136247
-0.0015217
-0.00168913
-0.00186431
-0.00204671
-0.00223588
-0.0024315
-0.00263342
-0.0028415
-0.00305507
-0.00327416
-0.00349741
-0.00372307
-0.00394905
-0.00417276
-0.0043915
-0.00460278
-0.00480399
-0.00499273
-0.0051669
-0.00532426
-0.00546336
-0.00558315
-0.00568266
-0.00576179
-0.00582077
-0.00586004
-0.0058808
-0.00588362
-0.00587042
-0.00584247
-0.00580129
-0.00574882
-0.00568641
-0.00561599
-0.00553904
-0.00545707
-0.00537111
-0.00528322
-0.00519472
-0.00510659
-0.00501965
-0.0049347
-0.00485269
-0.00477471
-0.00470178
-0.00463324
-0.00457039
-0.00451353
-0.00446348
-0.00442049
-0.00438482
-0.0043568
-0.00433618
-0.00432312
-0.00431703
4.16033e-05
4.1443e-05
4.04494e-05
3.858e-05
3.58252e-05
3.22527e-05
2.80383e-05
2.3393e-05
1.84595e-05
1.32857e-05
7.85883e-06
2.23246e-06
-3.42574e-06
-8.90241e-06
-1.40492e-05
-1.88131e-05
-2.31569e-05
-2.70277e-05
-3.03143e-05
-3.29448e-05
-3.4982e-05
-3.66304e-05
-3.81707e-05
-3.98937e-05
-4.21089e-05
-4.52148e-05
-4.97584e-05
-5.64297e-05
-6.60051e-05
-7.92968e-05
-9.71478e-05
-0.00012047
-0.000150284
-0.000187709
-0.000233867
-0.000289756
-0.00035617
-0.00043367
-0.000522635
-0.000623325
-0.000735838
-0.000860233
-0.000995709
-0.00114164
-0.00129729
-0.00146201
-0.00163523
-0.00181631
-0.00200463
-0.00219982
-0.00240191
-0.00261106
-0.00282735
-0.00304955
-0.00327938
-0.00351477
-0.00375389
-0.00399428
-0.00423307
-0.00446711
-0.0046934
-0.00490863
-0.00510986
-0.00529466
-0.00546086
-0.00560661
-0.00573076
-0.00583224
-0.0059107
-0.00596705
-0.00600162
-0.00601606
-0.00601096
-0.00598857
-0.00595058
-0.00589884
-0.00583513
-0.00576141
-0.00567927
-0.00559094
-0.00549784
-0.00540142
-0.00530313
-0.00520486
-0.00510772
-0.0050121
-0.00491939
-0.00483016
-0.00474574
-0.00466654
-0.00459288
-0.0045255
-0.00446465
-0.00441137
-0.00436562
-0.0043277
-0.00429791
-0.00427609
-0.00426212
-0.00425591
4.84838e-05
4.85347e-05
4.76841e-05
4.58389e-05
4.29841e-05
3.92e-05
3.47261e-05
2.9802e-05
2.45661e-05
1.9059e-05
1.33129e-05
7.45447e-06
1.70986e-06
-3.6815e-06
-8.54747e-06
-1.27816e-05
-1.6293e-05
-1.8936e-05
-2.05834e-05
-2.11772e-05
-2.07962e-05
-1.96295e-05
-1.79257e-05
-1.59485e-05
-1.39849e-05
-1.24084e-05
-1.17571e-05
-1.27672e-05
-1.63285e-05
-2.33959e-05
-3.49401e-05
-5.19915e-05
-7.5727e-05
-0.000107477
-0.000148582
-0.000200214
-0.000263294
-0.000338558
-0.000426611
-0.000527906
-0.000642551
-0.000770318
-0.000910193
-0.00106148
-0.00122318
-0.0013944
-0.00157421
-0.0017617
-0.00195626
-0.00215771
-0.00236643
-0.00258297
-0.00280787
-0.00303897
-0.00328091
-0.00353018
-0.00378493
-0.00404231
-0.0042991
-0.0045515
-0.00479572
-0.00502768
-0.005244
-0.00544171
-0.00561845
-0.00577187
-0.00590071
-0.00600408
-0.00608177
-0.00613448
-0.00616339
-0.00616986
-0.00615547
-0.00612251
-0.00607272
-0.00600823
-0.00593165
-0.00584455
-0.0057491
-0.00564768
-0.0055418
-0.00543336
-0.00532366
-0.0052143
-0.00510657
-0.00500143
-0.00490003
-0.00480261
-0.00471114
-0.00462542
-0.00454604
-0.00447359
-0.00440877
-0.00435184
-0.00430296
-0.00426253
-0.00423062
-0.00420753
-0.00419272
-0.00418613
5.63368e-05
5.66547e-05
5.5934e-05
5.4038e-05
5.09788e-05
4.69195e-05
4.20716e-05
3.67098e-05
3.09787e-05
2.49481e-05
1.87095e-05
1.24509e-05
6.44173e-06
9.59508e-07
-3.76911e-06
-7.56849e-06
-1.02801e-05
-1.1736e-05
-1.18278e-05
-1.04202e-05
-7.59678e-06
-3.51009e-06
1.61388e-06
7.5623e-06
1.41273e-05
2.09929e-05
2.75927e-05
3.30736e-05
3.64094e-05
3.6549e-05
3.24338e-05
2.28739e-05
6.44217e-06
-1.84516e-05
-5.33447e-05
-9.95778e-05
-0.000158327
-0.000230653
-0.000317436
-0.000419253
-0.0005362
-0.000667924
-0.000813035
-0.000970936
-0.00114007
-0.00131894
-0.00150622
-0.00170076
-0.00190194
-0.0021097
-0.00232469
-0.0025481
-0.00278093
-0.00302321
-0.00327764
-0.00354232
-0.00381511
-0.00409261
-0.00437087
-0.00464515
-0.00491084
-0.00516299
-0.00539761
-0.00561077
-0.00579977
-0.00596186
-0.006096
-0.00620096
-0.00627749
-0.00632566
-0.00634755
-0.00634446
-0.00631866
-0.00627282
-0.00620932
-0.00613004
-0.00603832
-0.00593596
-0.0058253
-0.00570864
-0.00558854
-0.00546649
-0.00534396
-0.00522237
-0.00510314
-0.00498725
-0.00487594
-0.00477004
-0.00467051
-0.00457752
-0.00449212
-0.0044142
-0.00434492
-0.0042841
-0.00423196
-0.00418877
-0.00415467
-0.00412997
-0.00411455
-0.00410787
6.54062e-05
6.59599e-05
6.53042e-05
6.32793e-05
5.99296e-05
5.54404e-05
5.01001e-05
4.41368e-05
3.77313e-05
3.09977e-05
2.40785e-05
1.72132e-05
1.07284e-05
4.96972e-06
2.30987e-07
-3.26599e-06
-5.33735e-06
-5.79149e-06
-4.43838e-06
-1.13558e-06
4.07478e-06
1.11052e-05
1.97729e-05
2.99881e-05
4.16543e-05
5.44629e-05
6.77456e-05
8.05299e-05
9.17302e-05
0.000100253
0.000104903
0.000104228
9.65087e-05
7.99242e-05
5.27306e-05
1.32957e-05
-3.9979e-05
-0.000108576
-0.000193606
-0.00029573
-0.000415115
-0.000551101
-0.000703392
-0.000869515
-0.0010477
-0.00123577
-0.00143187
-0.00163439
-0.00184249
-0.00205622
-0.00227666
-0.00250608
-0.00274656
-0.0029995
-0.00326749
-0.00354936
-0.00384297
-0.00414419
-0.00444808
-0.00474872
-0.00504047
-0.00531703
-0.00557343
-0.00580469
-0.00600808
-0.00618018
-0.00632023
-0.00642672
-0.00650099
-0.0065435
-0.00655642
-0.00654162
-0.00650216
-0.00644098
-0.0063609
-0.00626484
-0.00615553
-0.00603542
-0.00590709
-0.00577388
-0.00563742
-0.00550002
-0.00536331
-0.00522809
-0.00509611
-0.00496858
-0.00484642
-0.00473109
-0.00462297
-0.00452247
-0.00443049
-0.0043471
-0.00427272
-0.0042075
-0.00415173
-0.00410567
-0.00406961
-0.00404335
-0.00402699
-0.00402034
7.58283e-05
7.65924e-05
7.59351e-05
7.36924e-05
6.99512e-05
6.49262e-05
5.89208e-05
5.22007e-05
4.49467e-05
3.73075e-05
2.94722e-05
2.17507e-05
1.45581e-05
8.31622e-06
3.35698e-06
-8.62698e-08
-1.79997e-06
-1.5195e-06
1.03697e-06
6.05686e-06
1.35579e-05
2.34754e-05
3.58238e-05
5.06618e-05
6.79534e-05
8.73128e-05
0.000107974
0.000128943
0.000149151
0.000167422
0.00018232
0.000192093
0.000194775
0.000188307
0.000170594
0.000139541
9.30784e-05
2.92834e-05
-5.33028e-05
-0.000155584
-0.000277994
-0.000420061
-0.000580535
-0.000756528
-0.000945897
-0.00114551
-0.00135244
-0.00156418
-0.00177942
-0.00199844
-0.002223
-0.00245666
-0.00270314
-0.00296565
-0.00324779
-0.00354877
-0.00386638
-0.00419575
-0.0045307
-0.00486342
-0.00518661
-0.0054924
-0.0057748
-0.0060277
-0.00624778
-0.00643151
-0.00657765
-0.00668549
-0.00675615
-0.00679094
-0.00679264
-0.00676376
-0.00670783
-0.00662845
-0.00652885
-0.00641253
-0.0062829
-0.00614249
-0.0059947
-0.00584247
-0.00568794
-0.00553327
-0.00538014
-0.00522989
-0.00508412
-0.00494415
-0.00481066
-0.00468526
-0.00456816
-0.00445965
-0.00436027
-0.00427086
-0.00419109
-0.00412135
-0.00406173
-0.00401275
-0.00397451
-0.00394682
-0.00392972
-0.00392296
8.77823e-05
8.87329e-05
8.80119e-05
8.54624e-05
8.1219e-05
7.55353e-05
6.87267e-05
6.10777e-05
5.27702e-05
4.39588e-05
3.49113e-05
2.60463e-05
1.7877e-05
1.08671e-05
5.34631e-06
1.56532e-06
-1.79193e-07
4.95354e-07
3.95597e-06
1.0431e-05
2.00184e-05
3.28252e-05
4.90564e-05
6.88634e-05
9.2226e-05
0.000118672
0.000147441
0.000177608
0.000208096
0.000237567
0.000264326
0.000286366
0.000301472
0.000307245
0.000301074
0.00028031
0.000242407
0.000184908
0.000105704
3.4596e-06
-0.000122423
-0.00027161
-0.000442649
-0.000631053
-0.000834926
-0.00104948
-0.00127007
-0.00149285
-0.00171561
-0.00193874
-0.00216493
-0.00239954
-0.0026489
-0.0029188
-0.00321486
-0.00353693
-0.00388262
-0.00424593
-0.00461865
-0.00499045
-0.0053518
-0.00569311
-0.00600653
-0.00628526
-0.00652441
-0.00672102
-0.0068734
-0.00698166
-0.00704723
-0.00707212
-0.00705968
-0.00701333
-0.00693753
-0.00683608
-0.00671373
-0.00657411
-0.00642072
-0.0062576
-0.00608744
-0.00591357
-0.0057386
-0.00556473
-0.00539381
-0.00522734
-0.00506646
-0.00491306
-0.00476775
-0.00463135
-0.00450461
-0.00438758
-0.00428069
-0.00418452
-0.00409906
-0.00402477
-0.00396144
-0.00390955
-0.00386916
-0.00383995
-0.00382201
-0.00381493
0.000101486
0.000102603
0.00010176
9.88162e-05
9.39655e-05
8.75003e-05
7.97407e-05
7.09406e-05
6.12887e-05
5.09621e-05
4.03538e-05
3.0014e-05
2.05183e-05
1.23238e-05
5.7572e-06
1.14352e-06
-1.08286e-06
-4.18674e-07
3.56941e-06
1.11826e-05
2.26781e-05
3.83838e-05
5.86635e-05
8.37307e-05
0.000113455
0.000147493
0.000185157
0.00022559
0.00026765
0.000309839
0.00035028
0.000386724
0.000416602
0.000437065
0.000444966
0.000437018
0.000410011
0.000360755
0.000286265
0.000184567
5.48995e-05
-0.000102463
-0.000285237
-0.000491921
-0.000715382
-0.000949768
-0.0011883
-0.00142504
-0.00165603
-0.00188121
-0.00210468
-0.00233479
-0.00258167
-0.00285503
-0.00316382
-0.00350923
-0.00388818
-0.00429266
-0.00471163
-0.00513175
-0.00553995
-0.00592461
-0.0062748
-0.00658371
-0.00684489
-0.00705531
-0.00721378
-0.00732113
-0.00737915
-0.00739084
-0.00736074
-0.007293
-0.0071928
-0.00706561
-0.00691626
-0.00674905
-0.00656889
-0.00637954
-0.00618407
-0.00598594
-0.00578865
-0.00559371
-0.0054032
-0.0052189
-0.00504209
-0.00487419
-0.00471607
-0.0045682
-0.00443137
-0.00430523
-0.0041905
-0.00408746
-0.00399637
-0.00391735
-0.00385031
-0.00379525
-0.00375233
-0.00372159
-0.00370289
-0.00369563
0.000117196
0.000118456
0.00011743
0.000114009
0.000108449
0.000101063
9.21391e-05
8.1884e-05
7.04807e-05
5.82702e-05
4.57185e-05
3.35081e-05
2.22226e-05
1.22981e-05
4.10936e-06
-1.8828e-06
-5.09486e-06
-4.9245e-06
-8.56533e-07
7.5544e-06
2.07771e-05
3.9326e-05
6.3654e-05
9.40121e-05
0.000130377
0.000172471
0.000219782
0.000271497
0.000326435
0.000383021
0.000439234
0.000492534
0.000539912
0.000578042
0.000603247
0.000611424
0.000598345
0.000559896
0.000492105
0.000391921
0.000257879
8.98386e-05
-0.000110375
-0.000339005
-0.000588313
-0.000849596
-0.00111263
-0.00136789
-0.00160841
-0.0018328
-0.00204686
-0.00226348
-0.002499
-0.00276931
-0.00308829
-0.00345919
-0.0038779
-0.00433332
-0.00480983
-0.00529028
-0.00575629
-0.00619351
-0.00658794
-0.00693153
-0.00721759
-0.00744288
-0.00760657
-0.00771045
-0.00775754
-0.00775197
-0.00769906
-0.00760536
-0.0074756
-0.00731764
-0.00713664
-0.00693797
-0.00672672
-0.00650742
-0.00628373
-0.006059
-0.00583644
-0.00561823
-0.00540685
-0.00520345
-0.00500953
-0.00482626
-0.00465436
-0.00449447
-0.00434678
-0.00421144
-0.0040887
-0.00397867
-0.00388186
-0.00379797
-0.00372704
-0.003669
-0.0036236
-0.00359111
-0.00357149
-0.00356401
0.000135206
0.000136571
0.000135302
0.000131322
0.000124931
0.000116428
0.000106038
9.39386e-05
8.03813e-05
6.58261e-05
5.0951e-05
3.64041e-05
2.27642e-05
1.04878e-05
5.81722e-08
-7.90857e-06
-1.26985e-05
-1.36054e-05
-9.97817e-06
-1.18188e-06
1.34412e-05
3.45395e-05
6.26682e-05
9.82108e-05
0.000141322
0.000191886
0.000249498
0.000313457
0.00038269
0.000455574
0.000529898
0.000602839
0.000670991
0.000730504
0.000777023
0.000805446
0.000810251
0.000786102
0.000727781
0.000630586
0.000491645
0.000310248
8.80805e-05
-0.00016962
-0.00045459
-0.00075335
-0.00105098
-0.00133227
-0.00158518
-0.00180536
-0.00200016
-0.00218918
-0.00239868
-0.00265503
-0.00297927
-0.00337781
-0.00384489
-0.00436468
-0.00491404
-0.00546971
-0.00600769
-0.00650816
-0.00695607
-0.00734035
-0.00765385
-0.0078938
-0.00806076
-0.00815766
-0.00818884
-0.00816089
-0.00807981
-0.00795338
-0.00778776
-0.00759329
-0.00737561
-0.00714049
-0.00689398
-0.00664088
-0.00638494
-0.00613057
-0.00588031
-0.00563694
-0.00540257
-0.00517871
-0.0049666
-0.00476713
-0.00458072
-0.00440845
-0.00424975
-0.00410493
-0.00397413
-0.00385721
-0.0037546
-0.00366606
-0.00359106
-0.00352973
-0.00348212
-0.00344805
-0.00342757
-0.00341985
0.000155849
0.000157274
0.0001557
0.000151063
0.000143674
0.000133775
0.00012154
0.000107177
9.1061e-05
7.37984e-05
5.61219e-05
3.87006e-05
2.20811e-05
6.78797e-06
-6.559e-06
-1.7201e-05
-2.4293e-05
-2.69835e-05
-2.44496e-05
-1.58858e-05
-4.83076e-07
2.25689e-05
5.40297e-05
9.45038e-05
0.000144337
0.000203587
0.000272065
0.000349303
0.000434352
0.000525576
0.000620576
0.000716346
0.000809171
0.000894534
0.000967175
0.00102094
0.00104881
0.00104368
0.000998531
0.0009066
0.000762922
0.00056548
0.00031544
1.85384e-05
-0.000314806
-0.000666622
-0.00101485
-0.00133529
-0.00160689
-0.0018192
-0.00198037
-0.00211969
-0.00227915
-0.002503
-0.0028241
-0.00325311
-0.00378058
-0.00438249
-0.00502572
-0.00567664
-0.0063046
-0.00688278
-0.00739357
-0.00782408
-0.00816729
-0.00842134
-0.00858791
-0.00867241
-0.00868141
-0.00862337
-0.00850733
-0.00834159
-0.00813048
-0.00789307
-0.00763309
-0.00735623
-0.00706914
-0.00677739
-0.00648558
-0.00619833
-0.0059177
-0.00564709
-0.00538816
-0.00514262
-0.0049113
-0.00469491
-0.00449363
-0.00430836
-0.0041387
-0.00398425
-0.00384531
-0.00372183
-0.00361338
-0.00352011
-0.00344143
-0.00337702
-0.00332726
-0.00329184
-0.0032704
-0.00326244
0.000179527
0.00018097
0.000179022
0.000173592
0.000164962
0.000153323
0.000138848
0.000121829
0.000102782
8.24055e-05
6.14388e-05
4.05463e-05
2.02782e-05
1.2291e-06
-1.58327e-05
-3.00027e-05
-4.027e-05
-4.56114e-05
-4.50534e-05
-3.765e-05
-2.24021e-05
1.77083e-06
3.59166e-05
8.08696e-05
0.000137179
0.000205179
0.000285024
0.000376543
0.000478939
0.00059056
0.000709026
0.000831217
0.000953119
0.00106949
0.00117404
0.00125946
0.00131705
0.00133727
0.00131059
0.00122777
0.00108086
0.000865116
0.000580115
0.000231332
-0.000168039
-0.00059636
-0.0010207
-0.0014032
-0.001707
-0.0019091
-0.00201571
-0.00207019
-0.00214023
-0.00230132
-0.00260535
-0.0030683
-0.00367398
-0.00438335
-0.00514876
-0.00592204
-0.00666291
-0.00733488
-0.00791944
-0.00840179
-0.00877533
-0.00904048
-0.00920133
-0.00926581
-0.00924388
-0.00914669
-0.00898639
-0.00877655
-0.00850157
-0.00821802
-0.00790846
-0.00758299
-0.00724989
-0.00691494
-0.00658333
-0.00625941
-0.00594622
-0.00564618
-0.00536132
-0.00509274
-0.00484111
-0.00460703
-0.00439083
-0.00419243
-0.00401167
-0.0038479
-0.00370097
-0.00357106
-0.00345741
-0.00335952
-0.00327727
-0.0032104
-0.00315863
-0.00312185
-0.00309963
-0.00309157
0.000206729
0.000208159
0.000205742
0.000199324
0.000189153
0.000175413
0.000158333
0.000138317
0.000115973
9.20297e-05
6.72081e-05
4.21525e-05
1.75076e-05
-6.18179e-06
-2.79105e-05
-4.66051e-05
-6.10687e-05
-7.01368e-05
-7.27204e-05
-6.7693e-05
-5.37546e-05
-2.94757e-05
6.47792e-06
5.5171e-05
0.000117453
0.000194083
0.000285635
0.000392216
0.000513243
0.000647327
0.000792167
0.000944644
0.00110044
0.00125375
0.0013972
0.00152205
0.00161771
0.00167185
0.00167164
0.00160431
0.00145768
0.0012225
0.000894779
0.000478357
-1.20422e-05
-0.000550662
-0.00109145
-0.00157545
-0.00193902
-0.00213388
-0.00215648
-0.00206993
-0.00198619
-0.00203472
-0.00229913
-0.00280164
-0.00351228
-0.00436675
-0.00529292
-0.00622274
-0.00710067
-0.00788889
-0.00855897
-0.0090973
-0.00949987
-0.00977028
-0.00991653
-0.00995064
-0.00988584
-0.00973684
-0.00951861
-0.00924336
-0.00892024
-0.00857069
-0.00820112
-0.00781957
-0.00743386
-0.0070504
-0.00667481
-0.00631089
-0.00596248
-0.00563097
-0.00531856
-0.00502591
-0.00475363
-0.00450182
-0.00427027
-0.00405884
-0.00386711
-0.00369443
-0.00354022
-0.00340392
-0.00328548
-0.00318376
-0.00309819
-0.00302886
-0.00297541
-0.0029374
-0.00291441
-0.0029063
0.000238041
0.000239419
0.000236394
0.000228741
0.000216712
0.000200538
0.000180533
0.000157179
0.000131118
0.000103069
7.37283e-05
4.37222e-05
1.36621e-05
-1.55532e-05
-4.29926e-05
-6.73128e-05
-8.71515e-05
-0.000101254
-0.000108389
-0.000107144
-9.58401e-05
-7.27181e-05
-3.61788e-05
1.51619e-05
8.26045e-05
0.000167412
0.000270596
0.000392617
0.000533277
0.000691648
0.00086579
0.00105253
0.00124749
0.00144448
0.00163511
0.00180892
0.00195325
0.00205284
0.00209063
0.00204876
0.00190918
0.00165584
0.00127809
0.000774855
0.000159278
-0.000536321
-0.00125727
-0.00191045
-0.00238852
-0.00259369
-0.00249411
-0.00217677
-0.00183104
-0.00168428
-0.00187291
-0.00242645
-0.00328376
-0.00433791
-0.0054784
-0.00661032
-0.00766001
-0.00858201
-0.00934674
-0.0099419
-0.0103679
-0.0106334
-0.0107518
-0.0107405
-0.0106181
-0.0104023
-0.0101113
-0.00976182
-0.00936826
-0.00894654
-0.00850812
-0.00806222
-0.00761711
-0.00718003
-0.00675596
-0.00634898
-0.00596212
-0.0055975
-0.00525665
-0.00493925
-0.00464575
-0.00437592
-0.00412974
-0.00390596
-0.00370382
-0.00352255
-0.00336165
-0.00321986
-0.00309666
-0.00299131
-0.00290323
-0.00283193
-0.00277698
-0.00273791
-0.00271443
-0.00270625
0.000274099
0.000275358
0.000271543
0.000262391
0.000248211
0.000229308
0.00020606
0.000178973
0.000148681
0.000115884
8.12562e-05
4.54155e-05
9.03697e-06
-2.69193e-05
-6.11948e-05
-9.23452e-05
-0.000118923
-0.00013958
-0.000152854
-0.000156965
-0.000149882
-0.000129559
-9.40782e-05
-4.15901e-05
2.97544e-05
0.000121739
0.000235884
0.000373217
0.000534131
0.000718293
0.000924325
0.00114942
0.0013892
0.00163731
0.0018846
0.00211898
0.00232549
0.00248561
0.00257725
0.00257586
0.00245531
0.00218971
0.00175733
0.00114663
0.000363731
-0.000558564
-0.00155394
-0.00249182
-0.00319325
-0.00346279
-0.00319938
-0.00250911
-0.00171386
-0.00123204
-0.00128618
-0.00191177
-0.00298285
-0.00431606
-0.00574216
-0.00713037
-0.00838837
-0.00946359
-0.0103282
-0.0109753
-0.0114126
-0.0116564
-0.0117284
-0.0116517
-0.0114509
-0.011149
-0.0107687
-0.0103296
-0.00984879
-0.00934274
-0.00882527
-0.00830654
-0.00779507
-0.00729842
-0.00682137
-0.00636854
-0.00594141
-0.00554191
-0.00517116
-0.00482898
-0.00451464
-0.00422749
-0.00396698
-0.00373147
-0.00351976
-0.00333095
-0.00316376
-0.00301738
-0.00289051
-0.00278218
-0.00269184
-0.00261904
-0.00256308
-0.00252313
-0.00249917
-0.00249083
0.00031555
0.000316581
0.000311775
0.000300886
0.000284303
0.00026239
0.000235536
0.000204236
0.00016911
0.000130836
9.00533e-05
4.738e-05
3.59576e-06