/*--------------------------------*- C++ -*----------------------------------*\
| =========                 |                                                 |
| \\      /  F ield         | OpenFOAM: The Open Source CFD Toolbox           |
|  \\    /   O peration     | Version:  2312                                  |
|   \\  /    A nd           | Website:  www.openfoam.com                      |
|    \\/     M anipulation  |                                                 |
\*---------------------------------------------------------------------------*/
FoamFile
{
    version     2.0;
    format      ascii;
    arch        "LSB;label=32;scalar=64";
    class       surfaceScalarField;
    location    "0.5";
    object      phi;
}
// * * * * * * * * * * * * * * * * * * * * * * * * * * * * * * * * * * * * * //

dimensions      [0 3 -1 0 0 0 0];

oriented        oriented;

internalField   nonuniform List<scalar> 
19800
(
-2.1005e-13
2.12063e-13
-6.95902e-13
4.86435e-13
-1.38781e-12
6.92827e-13
-2.09133e-12
7.0402e-13
-2.74263e-12
6.51172e-13
-3.35334e-12
6.10166e-13
-3.98706e-12
6.33135e-13
-4.70501e-12
7.1758e-13
-5.54921e-12
8.4408e-13
-6.54905e-12
9.99863e-13
-7.72525e-12
1.17623e-12
-9.09467e-12
1.36939e-12
-1.06725e-11
1.57764e-12
-1.24731e-11
1.80015e-12
-1.45098e-11
2.03612e-12
-1.67951e-11
2.2847e-12
-1.93402e-11
2.54488e-12
-2.21548e-11
2.81522e-12
-2.5247e-11
3.09366e-12
-2.86226e-11
3.37733e-12
-3.22838e-11
3.66259e-12
-3.62286e-11
3.94524e-12
-4.04496e-11
4.22074e-12
-4.49339e-11
4.4841e-12
-4.96632e-11
4.72964e-12
-5.46129e-11
4.95079e-12
-5.97515e-11
5.14016e-12
-6.50399e-11
5.28983e-12
-7.04307e-11
5.39157e-12
-7.58673e-11
5.43702e-12
-8.12846e-11
5.41759e-12
-8.66088e-11
5.32463e-12
-9.17581e-11
5.14948e-12
-9.6642e-11
4.88372e-12
-1.01163e-10
4.52013e-12
-1.05217e-10
4.05292e-12
-1.08695e-10
3.47765e-12
-1.11489e-10
2.79417e-12
-1.13492e-10
2.00298e-12
-1.14593e-10
1.10101e-12
-1.14676e-10
8.36376e-14
-1.13689e-10
-9.86072e-13
-1.11551e-10
-2.13827e-12
-1.08213e-10
-3.33784e-12
-1.03655e-10
-4.55796e-12
-9.78854e-11
-5.76971e-12
-9.09466e-11
-6.93971e-12
-8.29132e-11
-8.03378e-12
-7.38957e-11
-9.01719e-12
-6.4042e-11
-9.85356e-12
-5.35208e-11
-1.0521e-11
-4.25276e-11
-1.09926e-11
-3.12763e-11
-1.12519e-11
-1.99927e-11
-1.12849e-11
-8.89594e-12
-1.10973e-11
1.79888e-12
-1.06949e-11
1.18948e-11
-1.00961e-11
2.12141e-11
-9.32027e-12
2.96104e-11
-8.39758e-12
3.69713e-11
-7.36172e-12
4.32172e-11
-6.24693e-12
4.83052e-11
-5.08847e-12
5.22242e-11
-3.91989e-12
5.49963e-11
-2.77193e-12
5.66737e-11
-1.67556e-12
5.73189e-11
-6.44119e-13
5.70215e-11
2.98815e-13
5.5894e-11
1.1283e-12
5.40442e-11
1.85052e-12
5.15894e-11
2.45669e-12
4.86452e-11
2.94585e-12
4.53257e-11
3.32072e-12
4.17397e-11
3.58743e-12
3.79879e-11
3.75403e-12
3.41603e-11
3.82953e-12
3.03376e-11
3.82403e-12
2.65884e-11
3.7493e-12
2.29741e-11
3.6168e-12
1.95399e-11
3.43557e-12
1.63233e-11
3.21649e-12
1.33529e-11
2.96974e-12
1.06489e-11
2.70479e-12
8.22092e-12
2.42731e-12
6.07711e-12
2.14579e-12
4.2143e-12
1.86398e-12
2.62556e-12
1.58767e-12
1.30462e-12
1.32104e-12
2.39259e-13
1.06669e-12
-5.86656e-13
8.25242e-13
-1.18831e-12
6.00245e-13
-1.58524e-12
3.95612e-13
-1.79862e-12
2.12734e-13
-1.85656e-12
5.71152e-14
-1.77626e-12
-7.68665e-14
-1.59498e-12
-1.82388e-13
-1.33029e-12
-2.65714e-13
-1.01449e-12
-3.16496e-13
-7.08301e-13
-3.07932e-13
-4.44331e-13
-2.64378e-13
-4.42677e-13
-2.0435e-13
4.1695e-13
-7.64896e-13
1.0485e-12
-1.7028e-12
1.6314e-12
-2.85586e-12
1.8568e-12
-4.01653e-12
1.81101e-12
-5.15912e-12
1.75196e-12
-6.3505e-12
1.8241e-12
-7.67963e-12
2.04666e-12
-9.22377e-12
2.38833e-12
-1.10406e-11
2.81672e-12
-1.31749e-11
3.31047e-12
-1.56638e-11
3.858e-12
-1.85399e-11
4.4532e-12
-2.18327e-11
5.09206e-12
-2.55688e-11
5.77143e-12
-2.9772e-11
6.48778e-12
-3.44631e-11
7.23696e-12
-3.96593e-11
8.0136e-12
-4.53737e-11
8.81068e-12
-5.16137e-11
9.61941e-12
-5.83796e-11
1.04293e-11
-6.56626e-11
1.12282e-11
-7.34439e-11
1.2002e-11
-8.1694e-11
1.2735e-11
-9.03714e-11
1.34091e-11
-9.94223e-11
1.40041e-11
-1.08778e-10
1.44983e-11
-1.18356e-10
1.48688e-11
-1.28055e-10
1.50915e-11
-1.37759e-10
1.51416e-11
-1.47335e-10
1.49937e-11
-1.56633e-10
1.46227e-11
-1.65488e-10
1.40043e-11
-1.73722e-10
1.31162e-11
-1.81142e-10
1.19392e-11
-1.87548e-10
1.04582e-11
-1.92734e-10
8.66335e-12
-1.96492e-10
6.55307e-12
-1.98623e-10
4.13361e-12
-1.98938e-10
1.41752e-12
-1.9728e-10
-1.57414e-12
-1.93485e-10
-4.78029e-12
-1.87462e-10
-8.16067e-12
-1.79153e-10
-1.16473e-11
-1.68552e-10
-1.51605e-11
-1.55708e-10
-1.86134e-11
-1.40739e-10
-2.19093e-11
-1.23824e-10
-2.4949e-11
-1.05205e-10
-2.76349e-11
-8.51824e-11
-2.98753e-11
-6.41148e-11
-3.15891e-11
-4.23892e-11
-3.27188e-11
-2.04246e-11
-3.32172e-11
1.35377e-12
-3.30647e-11
2.25217e-11
-3.22664e-11
4.26806e-11
-3.0855e-11
6.14659e-11
-2.88827e-11
7.85637e-11
-2.642e-11
9.37175e-11
-2.35537e-11
1.06736e-10
-2.03817e-11
1.17495e-10
-1.70062e-11
1.25936e-10
-1.35291e-11
1.32064e-10
-1.00475e-11
1.35942e-10
-6.64934e-12
1.37684e-10
-3.41377e-12
1.37447e-10
-4.05211e-13
1.3542e-10
2.32708e-12
1.31809e-10
4.74135e-12
1.26842e-10
6.81949e-12
1.20752e-10
8.55e-12
1.13767e-10
9.93322e-12
1.0611e-10
1.09797e-11
9.79935e-11
1.17075e-11
8.96096e-11
1.21408e-11
8.11332e-11
1.23078e-11
7.27206e-11
1.22399e-11
6.45024e-11
1.19687e-11
5.65916e-11
1.15287e-11
4.90775e-11
1.09504e-11
4.20305e-11
1.02644e-11
3.55017e-11
9.49738e-12
2.95293e-11
8.67824e-12
2.41307e-11
7.82622e-12
1.93154e-11
6.96168e-12
1.50801e-11
6.10038e-12
1.14093e-11
5.25768e-12
8.28724e-12
4.4429e-12
5.68708e-12
3.66597e-12
3.57759e-12
2.93328e-12
1.92504e-12
2.25257e-12
6.87151e-13
1.63086e-12
-1.74622e-13
1.07722e-12
-7.0864e-13
5.90614e-13
-9.64558e-13
1.77964e-13
-9.88603e-13
-1.57911e-13
-8.47905e-13
-4.0679e-13
-6.17505e-13
-5.45079e-13
-3.98651e-13
-5.23737e-13
-2.72482e-13
-3.85688e-13
-7.17501e-13
-9.21013e-14
5.09971e-13
-3.46185e-13
1.30353e-12
-9.97916e-13
2.28324e-12
-1.98612e-12
2.84465e-12
-3.17336e-12
2.9979e-12
-4.47487e-12
3.05346e-12
-5.89862e-12
3.24816e-12
-7.50039e-12
3.64884e-12
-9.34764e-12
4.23591e-12
-1.1503e-11
4.97225e-12
-1.40213e-11
5.82889e-12
-1.6951e-11
6.78754e-12
-2.03352e-11
7.83672e-12
-2.42124e-11
8.96828e-12
-2.86171e-11
1.01753e-11
-3.35797e-11
1.14502e-11
-3.9126e-11
1.27842e-11
-4.52775e-11
1.41668e-11
-5.20497e-11
1.55847e-11
-5.94507e-11
1.70218e-11
-6.748e-11
1.84591e-11
-7.61264e-11
1.98747e-11
-8.53668e-11
2.12429e-11
-9.51656e-11
2.25348e-11
-1.05473e-10
2.37178e-11
-1.16223e-10
2.4756e-11
-1.27335e-10
2.56107e-11
-1.38706e-10
2.62408e-11
-1.50217e-10
2.66029e-11
-1.61727e-10
2.66523e-11
-1.73077e-10
2.63434e-11
-1.84085e-10
2.56314e-11
-1.94554e-10
2.44735e-11
-2.04268e-10
2.28301e-11
-2.12997e-10
2.06671e-11
-2.20497e-10
1.79587e-11
-2.26523e-10
1.46887e-11
-2.30825e-10
1.08552e-11
-2.33166e-10
6.47448e-12
-2.33319e-10
1.57115e-12
-2.31081e-10
-3.81164e-12
-2.26283e-10
-9.5781e-12
-2.18805e-10
-1.56383e-11
-2.0858e-10
-2.18711e-11
-1.95607e-10
-2.81333e-11
-1.79955e-10
-3.4265e-11
-1.61767e-10
-4.00956e-11
-1.41271e-10
-4.54456e-11
-1.18765e-10
-5.01403e-11
-9.46211e-11
-5.40174e-11
-6.92731e-11
-5.69371e-11
-4.32032e-11
-5.87899e-11
-1.69159e-11
-5.9506e-11
9.06615e-12
-5.90487e-11
3.42347e-11
-5.74367e-11
5.81069e-11
-5.4729e-11
8.02488e-11
-5.1026e-11
1.00289e-10
-4.64611e-11
1.17928e-10
-4.11943e-11
1.32948e-10
-3.54024e-11
1.45211e-10
-2.92703e-11
1.54664e-10
-2.29812e-11
1.61327e-10
-1.67089e-11
1.65291e-10
-1.06115e-11
1.66704e-10
-4.82559e-12
1.65769e-10
5.30858e-13
1.62722e-10
5.37498e-12
1.57823e-10
9.64225e-12
1.51348e-10
1.32956e-11
1.43581e-10
1.63189e-11
1.34799e-10
1.87161e-11
1.25271e-10
2.05094e-11
1.15248e-10
2.1733e-11
1.0496e-10
2.24307e-11
9.46154e-11
2.26539e-11
8.4395e-11
2.24614e-11
7.44546e-11
2.19106e-11
6.49227e-11
2.10613e-11
5.59034e-11
1.99692e-11
4.74779e-11
1.86894e-11
3.97033e-11
1.72719e-11
3.26192e-11
1.57607e-11
2.6247e-11
1.41974e-11
2.0596e-11
1.26128e-11
1.56529e-11
1.10439e-11
1.14044e-11
9.50654e-12
7.82028e-12
8.02618e-12
4.87022e-12
6.61603e-12
2.51177e-12
5.29021e-12
7.01661e-13
4.06431e-12
-6.10033e-13
2.94323e-12
-1.47587e-12
1.94145e-12
-1.9472e-12
1.06442e-12
-2.08292e-12
3.15544e-13
-1.94276e-12
-2.9737e-13
-1.59282e-12
-7.55032e-13
-1.1268e-12
-1.01052e-12
-6.71051e-13
-9.80062e-13
-3.5381e-13
-6.98168e-13
-1.07253e-12
-6.15805e-14
5.72246e-13
-1.25533e-13
1.36775e-12
-4.2514e-13
2.58274e-12
-1.07092e-12
3.4904e-12
-2.02053e-12
3.94785e-12
-3.20772e-12
4.24134e-12
-4.60689e-12
4.6481e-12
-6.23699e-12
5.27952e-12
-8.14126e-12
6.14053e-12
-1.03727e-11
7.20389e-12
-1.29847e-11
8.4409e-12
-1.60284e-11
9.83097e-12
-1.95514e-11
1.13589e-11
-2.35969e-11
1.30127e-11
-2.82039e-11
1.47815e-11
-3.3407e-11
1.66531e-11
-3.92359e-11
1.8614e-11
-4.5715e-11
2.06474e-11
-5.28623e-11
2.27336e-11
-6.06882e-11
2.48488e-11
-6.91933e-11
2.69649e-11
-7.83677e-11
2.90494e-11
-8.81892e-11
3.10647e-11
-9.86223e-11
3.29683e-11
-1.09617e-10
3.47125e-11
-1.21105e-10
3.6245e-11
-1.33003e-10
3.75089e-11
-1.45206e-10
3.84435e-11
-1.57587e-10
3.89847e-11
-1.70001e-10
3.9066e-11
-1.82277e-10
3.86201e-11
-1.94225e-10
3.758e-11
-2.05632e-10
3.58814e-11
-2.16267e-10
3.3465e-11
-2.25879e-10
3.02796e-11
-2.34206e-10
2.62854e-11
-2.40976e-10
2.14586e-11
-2.45916e-10
1.57952e-11
-2.4876e-10
9.31828e-12
-2.49251e-10
2.06307e-12
-2.47159e-10
-5.90327e-12
-2.42291e-10
-1.44459e-11
-2.34502e-10
-2.34264e-11
-2.23706e-10
-3.26645e-11
-2.09892e-10
-4.19466e-11
-1.93123e-10
-5.10334e-11
-1.73551e-10
-5.96658e-11
-1.51419e-10
-6.75769e-11
-1.27056e-10
-7.45024e-11
-1.00874e-10
-8.01984e-11
-7.3356e-11
-8.44549e-11
-4.50377e-11
-8.71104e-11
-1.64908e-11
-8.80555e-11
1.17005e-11
-8.72421e-11
3.89647e-11
-8.47021e-11
6.47629e-11
-8.05287e-11
8.86127e-11
-7.48775e-11
1.10105e-10
-6.79544e-11
1.28914e-10
-6.00042e-11
1.44807e-10
-5.12957e-11
1.57645e-10
-4.21087e-11
1.67383e-10
-3.27184e-11
1.7406e-10
-2.33842e-11
1.77791e-10
-1.43411e-11
1.78756e-10
-5.79047e-12
1.77191e-10
2.09619e-12
1.73367e-10
9.1995e-12
1.67581e-10
1.54294e-11
1.60142e-10
2.07344e-11
1.51364e-10
2.50969e-11
1.41556e-10
2.85273e-11
1.31007e-10
3.10609e-11
1.1999e-10
3.27515e-11
1.08751e-10
3.3669e-11
9.75144e-11
3.38922e-11
8.64687e-11
3.35072e-11
7.57785e-11
3.26022e-11
6.55745e-11
3.12653e-11
5.59664e-11
2.95791e-11
4.70298e-11
2.76234e-11
3.88263e-11
2.54744e-11
3.13925e-11
2.31944e-11
2.47438e-11
2.08436e-11
1.88838e-11
1.84738e-11
1.37994e-11
1.61259e-11
9.47015e-12
1.38381e-11
5.85933e-12
1.16375e-11
2.92687e-12
9.54867e-12
6.28364e-13
7.59057e-12
-1.09033e-12
5.78077e-12
-2.27629e-12
4.13387e-12
-2.99656e-12
2.66139e-12
-3.29971e-12
1.36907e-12
-3.24788e-12
2.63916e-13
-2.9019e-12
-6.42397e-13
-2.33208e-12
-1.32341e-12
-1.6345e-12
-1.70693e-12
-9.49883e-13
-1.66556e-12
-4.42918e-13
-1.20473e-12
-1.51335e-12
-1.14966e-13
6.87492e-13
-1.57514e-13
1.41015e-12
-2.53893e-13
2.6791e-12
-5.84653e-13
3.82161e-12
-1.21647e-12
4.58058e-12
-2.14609e-12
5.172e-12
-3.35407e-12
5.85684e-12
-4.84273e-12
6.7685e-12
-6.63934e-12
7.93717e-12
-8.78454e-12
9.34899e-12
-1.13268e-11
1.09829e-11
-1.43151e-11
1.28188e-11
-1.77974e-11
1.48405e-11
-2.18193e-11
1.70337e-11
-2.64223e-11
1.93838e-11
-3.1644e-11
2.18749e-11
-3.75176e-11
2.44884e-11
-4.40711e-11
2.72022e-11
-5.1326e-11
2.99898e-11
-5.9296e-11
3.28198e-11
-6.79857e-11
3.56552e-11
-7.73889e-11
3.84527e-11
-8.74874e-11
4.11629e-11
-9.82494e-11
4.37299e-11
-1.09628e-10
4.60907e-11
-1.21559e-10
4.81761e-11
-1.33961e-10
4.99104e-11
-1.4673e-10
5.12124e-11
-1.59742e-10
5.19961e-11
-1.72848e-10
5.21721e-11
-1.85876e-10
5.1649e-11
-1.9863e-10
5.03353e-11
-2.1089e-10
4.81424e-11
-2.22413e-10
4.49882e-11
-2.32935e-10
4.08009e-11
-2.42173e-10
3.55238e-11
-2.49835e-10
2.91205e-11
-2.5562e-10
2.15807e-11
-2.59232e-10
1.29311e-11
-2.60388e-10
3.21896e-12
-2.58813e-10
-7.47782e-12
-2.54283e-10
-1.8975e-11
-2.46619e-10
-3.10884e-11
-2.35706e-10
-4.35752e-11
-2.21507e-10
-5.61453e-11
-2.0407e-10
-6.84694e-11
-1.83542e-10
-8.01923e-11
-1.60175e-10
-9.09421e-11
-1.34321e-10
-1.00355e-10
-1.06431e-10
-1.08088e-10
-7.70376e-11
-1.13849e-10
-4.67332e-11
-1.17417e-10
-1.61687e-11
-1.18622e-10
1.4008e-11
-1.1742e-10
4.31518e-11
-1.13847e-10
7.06607e-11
-1.08039e-10
9.59976e-11
-1.00217e-10
1.18713e-10
-9.06709e-11
1.38454e-10
-7.97456e-11
1.54975e-10
-6.78168e-11
1.6814e-10
-5.52739e-11
1.77918e-10
-4.24962e-11
1.84374e-10
-2.98388e-11
1.87654e-10
-1.76206e-11
1.87977e-10
-6.11392e-12
1.85619e-10
4.4533e-12
1.80892e-10
1.39263e-11
1.74131e-10
2.21911e-11
1.65683e-10
2.91841e-11
1.55891e-10
3.48897e-11
1.45091e-10
3.93294e-11
1.33595e-10
4.25575e-11
1.21695e-10
4.46529e-11
1.09648e-10
4.57145e-11
9.76868e-11
4.58547e-11
8.60049e-11
4.51903e-11
7.47696e-11
4.38418e-11
6.41084e-11
4.19262e-11
5.41289e-11
3.95593e-11
4.49033e-11
3.68484e-11
3.64876e-11
3.38894e-11
2.89091e-11
3.07717e-11
2.21775e-11
2.75713e-11
1.62938e-11
2.43602e-11
1.1236e-11
2.11871e-11
6.97056e-12
1.81046e-11
3.46278e-12
1.5146e-11
6.56753e-13
1.23503e-11
-1.48785e-12
9.73788e-12
-3.03374e-12
7.3304e-12
-4.03601e-12
5.14067e-12
-4.55739e-12
3.18294e-12
-4.65444e-12
1.46627e-12
-4.39002e-12
-8.65051e-16
-3.82475e-12
-1.20823e-12
-3.03062e-12
-2.1172e-12
-2.10827e-12
-2.62881e-12
-1.20815e-12
-2.56226e-12
-5.21882e-13
-1.89147e-12
-2.03601e-12
-1.57317e-13
8.44774e-13
-2.11663e-13
1.46423e-12
-1.87705e-13
2.65535e-12
-2.73596e-13
3.90827e-12
-6.06376e-13
4.91441e-12
-1.23602e-12
5.80245e-12
-2.17175e-12
6.79278e-12
-3.4218e-12
8.01818e-12
-5.00798e-12
9.5227e-12
-6.96522e-12
1.13056e-11
-9.33639e-12
1.33536e-11
-1.21692e-11
1.56511e-11
-1.55111e-11
1.81817e-11
-1.94082e-11
2.09302e-11
-2.39045e-11
2.38797e-11
-2.90408e-11
2.70113e-11
-3.4854e-11
3.03024e-11
-4.13763e-11
3.37258e-11
-4.8634e-11
3.72488e-11
-5.66461e-11
4.08328e-11
-6.54228e-11
4.4432e-11
-7.49639e-11
4.7993e-11
-8.52571e-11
5.1455e-11
-9.62769e-11
5.47485e-11
-1.07983e-10
5.77954e-11
-1.20316e-10
6.05088e-11
-1.332e-10
6.27937e-11
-1.46536e-10
6.45478e-11
-1.60202e-10
6.56621e-11
-1.74052e-10
6.60222e-11
-1.87911e-10
6.55101e-11
-2.01582e-10
6.4007e-11
-2.14836e-10
6.13968e-11
-2.27418e-10
5.75707e-11
-2.3905e-10
5.24325e-11
-2.49428e-10
4.59023e-11
-2.58232e-10
3.79255e-11
-2.6513e-10
2.84796e-11
-2.69786e-10
1.75875e-11
-2.7189e-10
5.32303e-12
-2.71095e-10
-8.27211e-12
-2.67145e-10
-2.2924e-11
-2.59811e-10
-3.84209e-11
-2.48935e-10
-5.44507e-11
-2.34439e-10
-7.06397e-11
-2.16349e-10
-8.65588e-11
-1.948e-10
-1.01739e-10
-1.70049e-10
-1.15691e-10
-1.42475e-10
-1.27927e-10
-1.12573e-10
-1.37991e-10
-8.09387e-11
-1.45484e-10
-4.82609e-11
-1.50096e-10
-1.52519e-11
-1.51632e-10
1.73235e-11
-1.49997e-10
4.87325e-11
-1.45258e-10
7.82895e-11
-1.37598e-10
1.05387e-10
-1.27315e-10
1.29521e-10
-1.14805e-10
1.50305e-10
-1.00531e-10
1.67484e-10
-8.49964e-11
1.80927e-10
-6.87166e-11
1.90625e-10
-5.21932e-11
1.96678e-10
-3.5891e-11
1.99277e-10
-2.0221e-11
1.98695e-10
-5.53215e-12
1.95261e-10
7.88537e-12
1.8934e-10
1.98474e-11
1.81316e-10
3.02155e-11
1.71582e-10
3.89201e-11
1.6052e-10
4.5952e-11
1.485e-10
5.13514e-11
1.35858e-10
5.51986e-11
1.22905e-10
5.76061e-11
1.09915e-10
5.87056e-11
9.7125e-11
5.86468e-11
8.47338e-11
5.75823e-11
7.29049e-11
5.56726e-11
6.17676e-11
5.30668e-11
5.14164e-11
4.9911e-11
4.19186e-11
4.63438e-11
3.33235e-11
4.2487e-11
2.56424e-11
3.84523e-11
1.88848e-11
3.43329e-11
1.30303e-11
3.02117e-11
8.05232e-12
2.61656e-11
3.91495e-12
2.22437e-11
5.61434e-13
1.85014e-11
-2.05305e-12
1.49666e-11
-3.99199e-12
1.16784e-11
-5.31138e-12
8.65378e-12
-6.07976e-12
5.91278e-12
-6.35679e-12
3.46156e-12
-6.20592e-12
1.31443e-12
-5.68564e-12
-5.22437e-13
-4.86154e-12
-2.03202e-12
-3.80949e-12
-3.16732e-12
-2.63102e-12
-3.80648e-12
-1.48828e-12
-3.70485e-12
-6.12063e-13
-2.76576e-12
-2.64826e-12
-1.33683e-13
9.78289e-13
-1.37963e-13
1.46827e-12
1.00588e-14
2.50764e-12
1.39456e-13
3.77961e-12
8.49108e-14
4.96965e-12
-2.4077e-13
6.12824e-12
-8.71804e-13
7.42308e-12
-1.83121e-12
8.97623e-12
-3.14602e-12
1.0836e-11
-4.84829e-12
1.30068e-11
-6.98137e-12
1.5486e-11
-9.59061e-12
1.826e-11
-1.27248e-11
2.13155e-11
-1.64318e-11
2.46367e-11
-2.07579e-11
2.82056e-11
-2.57475e-11
3.20012e-11
-3.14421e-11
3.59979e-11
-3.78793e-11
4.01643e-11
-4.50917e-11
4.44624e-11
-5.31049e-11
4.88464e-11
-6.19363e-11
5.32628e-11
-7.15934e-11
5.76488e-11
-8.2072e-11
6.19323e-11
-9.33552e-11
6.60304e-11
-1.05411e-10
6.98495e-11
-1.18188e-10
7.32852e-11
-1.31618e-10
7.62226e-11
-1.45607e-10
7.85372e-11
-1.60039e-10
8.00952e-11
-1.74771e-10
8.07553e-11
-1.8963e-10
8.03701e-11
-2.04412e-10
7.87904e-11
-2.18885e-10
7.58689e-11
-2.32779e-10
7.1465e-11
-2.45797e-10
6.54511e-11
-2.57612e-10
5.77185e-11
-2.67873e-10
4.8187e-11
-2.76207e-10
3.68146e-11
-2.82237e-10
2.36176e-11
-2.85563e-10
8.64893e-12
-2.85839e-10
-7.99644e-12
-2.82705e-10
-2.60575e-11
-2.75876e-10
-4.52496e-11
-2.65132e-10
-6.51935e-11
-2.50346e-10
-8.54238e-11
-2.31504e-10
-1.05399e-10
-2.08722e-10
-1.24519e-10
-1.82261e-10
-1.4215e-10
-1.5253e-10
-1.57658e-10
-1.20085e-10
-1.70436e-10
-8.56129e-11
-1.79957e-10
-4.98839e-11
-1.85826e-10
-1.37517e-11
-1.87766e-10
2.18924e-11
-1.85643e-10
5.61908e-11
-1.79558e-10
8.83465e-11
-1.69754e-10
1.17659e-10
-1.56628e-10
1.43554e-10
-1.40701e-10
1.65608e-10
-1.22585e-10
1.83549e-10
-1.02938e-10
1.9726e-10
-8.24276e-11
2.06766e-10
-6.16989e-11
2.12218e-10
-4.13428e-11
2.1387e-10
-2.18749e-11
2.12057e-10
-3.71947e-12
2.07195e-10
1.27472e-11
1.99707e-10
2.73361e-11
1.90043e-10
3.98781e-11
1.78655e-10
5.03076e-11
1.65975e-10
5.86312e-11
1.52412e-10
6.49165e-11
1.38336e-10
6.92765e-11
1.24077e-10
7.18644e-11
1.09927e-10
7.28565e-11
9.61271e-11
7.24463e-11
8.28841e-11
7.08305e-11
7.03517e-11
6.82052e-11
5.86551e-11
6.47631e-11
4.78816e-11
6.06868e-11
3.80845e-11
5.61395e-11
2.9301e-11
5.12755e-11
2.15293e-11
4.62215e-11
1.47668e-11
4.10988e-11
8.97342e-12
3.60056e-11
4.11878e-12
3.10212e-11
1.50929e-13
2.62157e-11
-2.98711e-12
2.16394e-11
-5.3605e-12
1.73427e-11
-7.03377e-12
1.33521e-11
-8.07259e-12
9.69508e-12
-8.54852e-12
6.3888e-12
-8.52437e-12
3.43594e-12
-8.06579e-12
8.54508e-13
-7.23511e-12
-1.35353e-12
-6.10228e-12
-3.1649e-12
-4.74219e-12
-4.5272e-12
-3.25881e-12
-5.2863e-12
-1.83377e-12
-5.12955e-12
-7.18886e-13
-3.88351e-12
-3.36756e-12
-4.97479e-14
1.02782e-12
8.70791e-14
1.33121e-12
4.14604e-13
2.18034e-12
7.7593e-13
3.41872e-12
1.00269e-12
4.74298e-12
9.88887e-13
6.14128e-12
6.78012e-13
7.7322e-12
3.94056e-14
9.61255e-12
-9.56562e-13
1.18299e-11
-2.35291e-12
1.44018e-11
-4.19421e-12
1.73268e-11
-6.52474e-12
2.05904e-11
-9.39703e-12
2.41876e-11
-1.28602e-11
2.80995e-11
-1.69643e-11
3.23095e-11
-2.17582e-11
3.67957e-11
-2.72892e-11
4.15302e-11
-3.36014e-11
4.64779e-11
-4.07348e-11
5.15964e-11
-4.87232e-11
5.68346e-11
-5.75927e-11
6.21313e-11
-6.73603e-11
6.74153e-11
-7.80324e-11
7.26035e-11
-8.96026e-11
7.75996e-11
-1.02049e-10
8.22949e-11
-1.15332e-10
8.65672e-11
-1.29391e-10
9.02814e-11
-1.44142e-10
9.32895e-11
-1.59476e-10
9.54313e-11
-1.75255e-10
9.65357e-11
-1.91308e-10
9.64239e-11
-2.0743e-10
9.49124e-11
-2.23379e-10
9.18176e-11
-2.38875e-10
8.6961e-11
-2.53598e-10
8.01758e-11
-2.67195e-10
7.13163e-11
-2.79274e-10
6.02674e-11
-2.89418e-10
4.69581e-11
-2.97176e-10
3.13756e-11
-3.02129e-10
1.36011e-11
-3.03792e-10
-6.33429e-12
-3.01756e-10
-2.80938e-11
-2.95646e-10
-5.13592e-11
-2.8516e-10
-7.56777e-11
-2.70099e-10
-1.00483e-10
-2.50393e-10
-1.25103e-10
-2.26127e-10
-1.48783e-10
-1.97561e-10
-1.70716e-10
-1.6514e-10
-1.90079e-10
-1.29488e-10
-2.06089e-10
-9.13921e-11
-2.18055e-10
-5.17918e-11
-2.25428e-10
-1.17142e-11
-2.27845e-10
2.78264e-11
-2.25184e-10
6.57873e-11
-2.17519e-10
1.0122e-10
-2.05187e-10
1.33302e-10
-1.8871e-10
1.61375e-10
-1.68774e-10
1.84961e-10
-1.46173e-10
2.03781e-10
-1.21758e-10
2.17737e-10
-9.63835e-11
2.26904e-10
-7.08659e-11
2.31504e-10
-4.59438e-11
2.3187e-10
-2.22414e-11
2.28451e-10
-2.9955e-13
2.21729e-10
1.9468e-11
2.12228e-10
3.68348e-11
2.00482e-10
5.16224e-11
1.87013e-10
6.37768e-11
1.72315e-10
7.33304e-11
1.56841e-10
8.03895e-11
1.41002e-10
8.51163e-11
1.25153e-10
8.77128e-11
1.09602e-10
8.84103e-11
9.45957e-11
8.74507e-11
8.03399e-11
8.50865e-11
6.69857e-11
8.156e-11
5.46468e-11
7.71035e-11
4.33941e-11
7.19421e-11
3.3273e-11
6.62631e-11
2.42911e-11
6.02556e-11
1.6443e-11
5.40706e-11
9.69728e-12
4.78455e-11
4.01195e-12
4.16909e-11
-6.66607e-13
3.5701e-11
-4.40416e-12
2.99555e-11
-7.27522e-12
2.45131e-11
-9.34376e-12
1.94143e-11
-1.06887e-11
1.46978e-11
-1.13817e-11
1.03879e-11
-1.14973e-11
6.4987e-12
-1.11085e-11
3.04652e-12
-1.02799e-11
2.50624e-14
-9.08051e-12
-2.55209e-12
-7.57743e-12
-4.66728e-12
-5.85046e-12
-6.2553e-12
-4.00959e-12
-7.1255e-12
-2.24446e-12
-6.89447e-12
-8.5282e-13
-5.2769e-12
-4.2224e-12
8.06617e-14
9.46898e-13
4.33206e-13
9.78434e-13
1.00809e-12
1.60558e-12
1.64531e-12
2.78164e-12
2.18114e-12
4.20671e-12
2.5031e-12
5.81782e-12
2.54673e-12
7.6861e-12
2.26608e-12
9.89049e-12
1.6202e-12
1.24737e-11
5.67887e-13
1.54531e-11
-9.31286e-13
1.88258e-11
-2.93414e-12
2.25932e-11
-5.4909e-12
2.67439e-11
-8.65772e-12
3.12659e-11
-1.24884e-11
3.61404e-11
-1.70378e-11
4.13462e-11
-2.23596e-11
4.68535e-11
-2.85059e-11
5.26253e-11
-3.55252e-11
5.86159e-11
-4.34606e-11
6.47695e-11
-5.2349e-11
7.10191e-11
-6.22191e-11
7.72851e-11
-7.30897e-11
8.34739e-11
-8.49675e-11
8.94769e-11
-9.78434e-11
9.51704e-11
-1.1169e-10
1.00415e-10
-1.26461e-10
1.05053e-10
-1.42083e-10
1.08914e-10
-1.58457e-10
1.11808e-10
-1.75454e-10
1.13533e-10
-1.92906e-10
1.13876e-10
-2.10607e-10
1.12614e-10
-2.28311e-10
1.09521e-10
-2.45723e-10
1.04374e-10
-2.62505e-10
9.69585e-11
-2.78269e-10
8.70817e-11
-2.92583e-10
7.45812e-11
-3.0497e-10
5.93451e-11
-3.14921e-10
4.13253e-11
-3.21895e-10
2.05739e-11
-3.25376e-10
-2.85432e-12
-3.24803e-10
-2.86665e-11
-3.19701e-10
-5.64587e-11
-3.09664e-10
-8.57138e-11
-2.94391e-10
-1.15755e-10
-2.73732e-10
-1.45761e-10
-2.47722e-10
-1.74791e-10
-2.16614e-10
-2.01824e-10
-1.80888e-10
-2.25805e-10
-1.41261e-10
-2.45718e-10
-9.86643e-11
-2.60653e-10
-5.42197e-11
-2.69874e-10
-9.13239e-12
-2.72932e-10
3.53148e-11
-2.6963e-10
7.7866e-11
-2.6007e-10
1.17381e-10
-2.44701e-10
1.52885e-10
-2.24212e-10
1.83605e-10
-1.99495e-10
2.09009e-10
-1.71579e-10
2.2881e-10
-1.41559e-10
2.42945e-10
-1.10519e-10
2.51561e-10
-7.94811e-11
2.54976e-10
-4.9358e-11
2.53641e-10
-2.09079e-11
2.48136e-10
5.20635e-12
2.39037e-10
2.85636e-11
2.27e-10
4.887e-11
2.12657e-10
6.59642e-11
1.96617e-10
7.98162e-11
1.79447e-10
9.05014e-11
1.61658e-10
9.81783e-11
1.43699e-10
1.03074e-10
1.25957e-10
1.05453e-10
1.08751e-10
1.05615e-10
9.23376e-11
1.03865e-10
7.69151e-11
1.00511e-10
6.2626e-11
9.58486e-11
4.95701e-11
9.01619e-11
3.77977e-11
8.37098e-11
2.73326e-11
7.67302e-11
1.81638e-11
6.94229e-11
1.02658e-11
6.19709e-11
3.58481e-12
5.45279e-11
-1.94184e-12
4.72189e-11
-6.3872e-12
4.01501e-11
-9.83266e-12
3.3402e-11
-1.23561e-11
2.70399e-11
-1.40476e-11
2.11055e-11
-1.49889e-11
1.56377e-11
-1.52657e-11
1.06644e-11
-1.49532e-11
6.18683e-12
-1.41288e-11
2.2197e-12
-1.28665e-11
-1.23756e-12
-1.12326e-11
-4.18324e-12
-9.29946e-12
-6.59859e-12
-7.14763e-12
-8.4059e-12
-4.88924e-12
-9.38451e-12
-2.72985e-12
-9.05716e-12
-1.00919e-12
-6.99937e-12
-5.23183e-12
2.36928e-13
7.09683e-13
8.67086e-13
3.48214e-13
1.75519e-12
7.17679e-13
2.72238e-12
1.81451e-12
3.60819e-12
3.32019e-12
4.30177e-12
5.12243e-12
4.73158e-12
7.25373e-12
4.84655e-12
9.77311e-12
4.6008e-12
1.2718e-11
3.94834e-12
1.61052e-11
2.83553e-12
1.99386e-11
1.2104e-12
2.42181e-11
-9.80174e-13
2.8934e-11
-3.79528e-12
3.40808e-11
-7.2976e-12
3.96433e-11
-1.15482e-11
4.55981e-11
-1.66091e-11
5.19156e-11
-2.25414e-11
5.85581e-11
-2.94031e-11
6.54775e-11
-3.72486e-11
7.26149e-11
-4.61272e-11
7.98979e-11
-5.60815e-11
8.72399e-11
-6.71451e-11
9.45378e-11
-7.93398e-11
1.01672e-10
-9.26724e-11
1.08504e-10
-1.07132e-10
1.14876e-10
-1.22687e-10
1.2061e-10
-1.39281e-10
1.2551e-10
-1.56829e-10
1.29356e-10
-1.7521e-10
1.31915e-10
-1.94267e-10
1.32932e-10
-2.13796e-10
1.32143e-10
-2.33547e-10
1.29273e-10
-2.53216e-10
1.24044e-10
-2.72441e-10
1.16185e-10
-2.90804e-10
1.05445e-10
-3.07822e-10
9.15998e-11
-3.22957e-10
7.44787e-11
-3.35613e-10
5.39798e-11
-3.45161e-10
3.01218e-11
-3.5097e-10
2.95448e-12
-3.52326e-10
-2.73095e-11
-3.48629e-10
-6.01549e-11
-3.39324e-10
-9.50187e-11
-3.23975e-10
-1.31103e-10
-3.02319e-10
-1.67416e-10
-2.74314e-10
-2.02796e-10
-2.40184e-10
-2.35954e-10
-2.0045e-10
-2.65542e-10
-1.55934e-10
-2.90236e-10
-1.07748e-10
-3.0884e-10
-5.72306e-11
-3.2039e-10
-5.89879e-12
-3.24264e-10
4.46485e-11
-3.20177e-10
9.29061e-11
-3.08326e-10
1.37467e-10
-2.89261e-10
1.77149e-10
-2.63894e-10
2.11048e-10
-2.33396e-10
2.38568e-10
-1.99102e-10
2.59421e-10
-1.62412e-10
2.73602e-10
-1.24701e-10
2.81364e-10
-8.72422e-11
2.8316e-10
-5.11533e-11
2.79583e-10
-1.73324e-11
2.7138e-10
1.34098e-11
2.59288e-10
4.0655e-11
2.4409e-10
6.40659e-11
2.26549e-10
8.35047e-11
2.07377e-10
9.89861e-11
1.87225e-10
1.10651e-10
1.66672e-10
1.18732e-10
1.46208e-10
1.23534e-10
1.26253e-10
1.2541e-10
1.07133e-10
1.24733e-10
8.9113e-11
1.21886e-10
7.23777e-11
1.17246e-10
5.70558e-11
1.11168e-10
4.32183e-11
1.03999e-10
3.09047e-11
9.60262e-11
2.01035e-11
8.75307e-11
1.07797e-11
7.87448e-11
2.87973e-12
6.98738e-11
-3.67346e-12
6.10841e-11
-8.97225e-12
5.25193e-11
-1.31062e-11
4.42842e-11
-1.61721e-11
3.64681e-11
-1.82692e-11
2.91369e-11
-1.94985e-11
2.23374e-11
-1.99589e-11
1.61022e-11
-1.97391e-11
1.04402e-11
-1.89235e-11
5.37051e-12
-1.7592e-11
8.89748e-13
-1.58228e-11
-3.00581e-12
-1.36899e-11
-6.31513e-12
-1.12664e-11
-9.0228e-12
-8.62892e-12
-1.10428e-11
-5.89567e-12
-1.2119e-11
-3.28531e-12
-1.16695e-11
-1.18946e-12
-9.09979e-12
-6.4223e-12
4.17536e-13
2.91989e-13
1.36969e-12
-6.0363e-13
2.62448e-12
-5.3665e-13
3.97929e-12
4.59876e-13
5.26491e-12
2.03391e-12
6.37456e-12
4.01119e-12
7.23391e-12
6.39242e-12
7.78842e-12
9.21715e-12
7.98803e-12
1.25179e-11
7.78166e-12
1.63117e-11
7.11457e-12
2.06058e-11
5.9296e-12
2.54028e-11
4.16353e-12
3.06997e-11
1.75505e-12
3.64895e-11
-1.36022e-12
4.27594e-11
-5.25114e-12
4.949e-11
-9.99063e-12
5.66556e-11
-1.56502e-11
6.42176e-11
-2.23002e-11
7.21272e-11
-3.00066e-11
8.03213e-11
-3.88337e-11
8.87256e-11
-4.884e-11
9.72469e-11
-6.00761e-11
1.05775e-10
-7.25818e-11
1.14179e-10
-8.63832e-11
1.22307e-10
-1.01489e-10
1.29984e-10
-1.17888e-10
1.37011e-10
-1.35543e-10
1.43165e-10
-1.54385e-10
1.482e-10
-1.74311e-10
1.51842e-10
-1.95176e-10
1.53798e-10
-2.16785e-10
1.53753e-10
-2.38889e-10
1.51377e-10
-2.61175e-10
1.46331e-10
-2.83265e-10
1.38276e-10
-3.04705e-10
1.26885e-10
-3.24965e-10
1.11859e-10
-3.43434e-10
9.29464e-11
-3.59427e-10
6.99729e-11
-3.72187e-10
4.28822e-11
-3.80949e-10
1.17169e-11
-3.84855e-10
-2.34038e-11
-3.83098e-10
-6.19119e-11
-3.7494e-10
-1.03177e-10
-3.59761e-10
-1.46282e-10
-3.37136e-10
-1.90041e-10
-3.06904e-10
-2.33029e-10
-2.69235e-10
-2.73624e-10
-2.24679e-10
-3.10099e-10
-1.74188e-10
-3.40727e-10
-1.19099e-10
-3.63929e-10
-6.1071e-11
-3.78418e-10
-1.9786e-12
-3.83356e-10
5.62041e-11
-3.78361e-10
1.11542e-10
-3.63664e-10
1.62308e-10
-3.40027e-10
2.07063e-10
-3.08652e-10
2.44742e-10
-2.71076e-10
2.74677e-10
-2.29038e-10
2.966e-10
-1.84334e-10
3.10598e-10
-1.387e-10
3.17072e-10
-9.37176e-11
3.16652e-10
-5.07332e-11
3.10158e-10
-1.08369e-11
2.98509e-10
2.50596e-11
2.82654e-10
5.65087e-11
2.63546e-10
8.31704e-11
2.42097e-10
1.0495e-10
2.19147e-10
1.21936e-10
1.95441e-10
1.34354e-10
1.71627e-10
1.42544e-10
1.48246e-10
1.46913e-10
1.25742e-10
1.47916e-10
1.0445e-10
1.46024e-10
8.46282e-11
1.4171e-10
6.64483e-11
1.35423e-10
5.00115e-11
1.27608e-10
3.53664e-11
1.1864e-10
2.251e-11
1.08882e-10
1.1409e-11
9.86334e-11
1.98403e-12
8.81697e-11
-5.84364e-12
7.77027e-11
-1.21899e-11
6.74317e-11
-1.71656e-11
5.74956e-11
-2.08869e-11
4.80034e-11
-2.34793e-11
3.9062e-11
-2.50583e-11
3.0718e-11
-2.57347e-11
2.30141e-11
-2.56169e-11
1.59839e-11
-2.48104e-11
9.63302e-12
-2.34053e-11
3.96524e-12
-2.14914e-11
-1.02624e-12
-1.91462e-11
-5.3494e-12
-1.64477e-11
-9.01257e-12
-1.34667e-11
-1.20032e-11
-1.02837e-11
-1.42234e-11
-7.02457e-12
-1.53801e-11
-3.91354e-12
-1.47834e-11
-1.39429e-12
-1.16202e-11
-7.81795e-12
6.15297e-13
-3.23162e-13
1.92967e-12
-1.91733e-12
3.60469e-12
-2.211e-12
5.39443e-12
-1.32958e-12
7.13423e-12
2.93695e-13
8.7078e-12
2.43662e-12
1.0045e-11
5.05424e-12
1.10876e-11
8.17423e-12
1.1783e-11
1.18228e-11
1.20767e-11
1.60184e-11
1.19108e-11
2.07719e-11
1.1224e-11
2.60893e-11
9.95085e-12
3.19726e-11
8.02162e-12
3.84187e-11
5.36213e-12
4.54191e-11
1.8949e-12
5.29572e-11
-2.45699e-12
6.10069e-11
-7.77436e-12
6.95341e-11
-1.4143e-11
7.84951e-11
-2.16466e-11
8.78248e-11
-3.0365e-11
9.74445e-11
-4.0374e-11
1.07257e-10
-5.17439e-11
1.17146e-10
-6.45361e-11
1.26972e-10
-7.87992e-11
1.36571e-10
-9.4566e-11
1.45751e-10
-1.11848e-10
1.54294e-10
-1.30633e-10
1.61951e-10
-1.50877e-10
1.68444e-10
-1.72497e-10
1.73464e-10
-1.95368e-10
1.7667e-10
-2.19309e-10
1.77695e-10
-2.44079e-10
1.76148e-10
-2.69365e-10
1.71618e-10
-2.94773e-10
1.63685e-10
-3.19821e-10
1.51932e-10
-3.43926e-10
1.35964e-10
-3.66407e-10
1.15427e-10
-3.86473e-10
9.00396e-11
-4.03225e-10
5.96347e-11
-4.15769e-10
2.42607e-11
-4.22999e-10
-1.61749e-11
-4.23898e-10
-6.10136e-11
-4.17476e-10
-1.096e-10
-4.02865e-10
-1.60893e-10
-3.79409e-10
-2.13497e-10
-3.46766e-10
-2.65672e-10
-3.05007e-10
-3.15384e-10
-2.54693e-10
-3.60413e-10
-1.96921e-10
-3.98499e-10
-1.33315e-10
-4.27536e-10
-6.59434e-11
-4.45791e-10
2.84967e-12
-4.5215e-10
7.05081e-11
-4.46019e-10
1.34615e-10
-4.27771e-10
1.92996e-10
-3.98409e-10
2.43884e-10
-3.59542e-10
2.86015e-10
-3.13209e-10
3.18652e-10
-2.61677e-10
3.41577e-10
-2.0726e-10
3.55022e-10
-1.52148e-10
3.59598e-10
-9.82938e-11
3.56188e-10
-4.73221e-11
3.45871e-10
-5.18749e-13
3.29846e-10
4.10819e-11
3.0929e-10
7.70621e-11
2.85374e-10
1.07084e-10
2.59189e-10
1.31133e-10
2.31715e-10
1.49406e-10
2.0381e-10
1.62258e-10
1.76193e-10
1.7016e-10
1.49453e-10
1.73652e-10
1.24053e-10
1.73317e-10
1.00333e-10
1.69742e-10
7.85349e-11
1.63508e-10
5.87978e-11
1.5516e-10
4.11966e-11
1.45205e-10
2.57394e-11
1.34098e-10
1.23841e-11
1.22238e-10
1.04326e-12
1.09974e-10
-8.38914e-12
9.76009e-11
-1.60492e-11
8.53623e-11