/*--------------------------------*- C++ -*----------------------------------*\
| =========                 |                                                 |
| \\      /  F ield         | OpenFOAM: The Open Source CFD Toolbox           |
|  \\    /   O peration     | Version:  2312                                  |
|   \\  /    A nd           | Website:  www.openfoam.com                      |
|    \\/     M anipulation  |                                                 |
\*---------------------------------------------------------------------------*/
FoamFile
{
    version     2.0;
    format      ascii;
    arch        "LSB;label=32;scalar=64";
    class       volVectorField;
    location    "0.5";
    object      U;
}
// * * * * * * * * * * * * * * * * * * * * * * * * * * * * * * * * * * * * * //

dimensions      [0 1 -1 0 0 0 0];

internalField   nonuniform List<vector> 
10000
(
(-3.24447e-08 1.58511e-08 0)
(-1.64864e-07 4.86746e-08 0)
(-4.14391e-07 6.48034e-08 0)
(-7.05746e-07 7.45056e-08 0)
(-9.72932e-07 6.74399e-08 0)
(-1.2218e-06 6.38587e-08 0)
(-1.46563e-06 6.8213e-08 0)
(-1.73165e-06 7.86636e-08 0)
(-2.04117e-06 9.30396e-08 0)
(-2.4081e-06 1.09684e-07 0)
(-2.84197e-06 1.27893e-07 0)
(-3.34999e-06 1.47492e-07 0)
(-3.93844e-06 1.68439e-07 0)
(-4.61319e-06 1.90755e-07 0)
(-5.3798e-06 2.14421e-07 0)
(-6.24345e-06 2.39402e-07 0)
(-7.20889e-06 2.65664e-07 0)
(-8.28034e-06 2.93142e-07 0)
(-9.46144e-06 3.21706e-07 0)
(-1.0755e-05 3.5112e-07 0)
(-1.21626e-05 3.81065e-07 0)
(-1.36844e-05 4.11185e-07 0)
(-1.53186e-05 4.41124e-07 0)
(-1.70611e-05 4.70521e-07 0)
(-1.89058e-05 4.98946e-07 0)
(-2.08441e-05 5.25859e-07 0)
(-2.28649e-05 5.5061e-07 0)
(-2.4954e-05 5.72489e-07 0)
(-2.70941e-05 5.9075e-07 0)
(-2.92645e-05 6.04622e-07 0)
(-3.14409e-05 6.13282e-07 0)
(-3.35954e-05 6.15869e-07 0)
(-3.56968e-05 6.11462e-07 0)
(-3.77106e-05 5.99053e-07 0)
(-3.95992e-05 5.77746e-07 0)
(-4.13219e-05 5.46727e-07 0)
(-4.28361e-05 5.05075e-07 0)
(-4.40984e-05 4.52371e-07 0)
(-4.50653e-05 3.89059e-07 0)
(-4.56926e-05 3.16222e-07 0)
(-4.59348e-05 2.3287e-07 0)
(-4.57583e-05 1.3394e-07 0)
(-4.51358e-05 2.60059e-08 0)
(-4.40412e-05 -8.92356e-08 0)
(-4.24604e-05 -2.09873e-07 0)
(-4.03909e-05 -3.33599e-07 0)
(-3.78428e-05 -4.57261e-07 0)
(-3.48397e-05 -5.77572e-07 0)
(-3.14199e-05 -6.90673e-07 0)
(-2.76325e-05 -7.91838e-07 0)
(-2.35413e-05 -8.80443e-07 0)
(-1.92223e-05 -9.52111e-07 0)
(-1.47574e-05 -1.00458e-06 0)
(-1.02333e-05 -1.03509e-06 0)
(-5.73986e-06 -1.04446e-06 0)
(-1.36604e-06 -1.03241e-06 0)
(2.80497e-06 -1.0005e-06 0)
(6.69794e-06 -9.49112e-07 0)
(1.02492e-05 -8.81189e-07 0)
(1.34063e-05 -8.00085e-07 0)
(1.61308e-05 -7.08896e-07 0)
(1.83981e-05 -6.10997e-07 0)
(2.01977e-05 -5.09647e-07 0)
(2.15322e-05 -4.07837e-07 0)
(2.24164e-05 -3.08829e-07 0)
(2.28739e-05 -2.15897e-07 0)
(2.29354e-05 -1.29969e-07 0)
(2.26416e-05 -5.08866e-08 0)
(2.2037e-05 1.8495e-08 0)
(2.1167e-05 7.76271e-08 0)
(2.00782e-05 1.26322e-07 0)
(1.88169e-05 1.64705e-07 0)
(1.74278e-05 1.93277e-07 0)
(1.59529e-05 2.12699e-07 0)
(1.44304e-05 2.23725e-07 0)
(1.28947e-05 2.27266e-07 0)
(1.13754e-05 2.24385e-07 0)
(9.89878e-06 2.16213e-07 0)
(8.48595e-06 2.03303e-07 0)
(7.15325e-06 1.86713e-07 0)
(5.91389e-06 1.67534e-07 0)
(4.77793e-06 1.46785e-07 0)
(3.75108e-06 1.24501e-07 0)
(2.83653e-06 1.01875e-07 0)
(2.03556e-06 7.89941e-08 0)
(1.34571e-06 5.6508e-08 0)
(7.64273e-07 3.49455e-08 0)
(2.88131e-07 1.44888e-08 0)
(-8.8633e-08 -5.25277e-09 0)
(-3.72794e-07 -2.38784e-08 0)
(-5.71275e-07 -4.05923e-08 0)
(-6.91581e-07 -5.55611e-08 0)
(-7.43697e-07 -6.91532e-08 0)
(-7.37128e-07 -8.01109e-08 0)
(-6.82493e-07 -8.94898e-08 0)
(-5.90637e-07 -9.55898e-08 0)
(-4.71125e-07 -9.74638e-08 0)
(-3.42413e-07 -9.67201e-08 0)
(-2.31562e-07 -9.55389e-08 0)
(-1.15194e-07 -1.14876e-07 0)
(-2.34182e-08 1.24739e-07 0)
(-1.51847e-07 3.16951e-07 0)
(-4.62082e-07 4.66343e-07 0)
(-9.05102e-07 5.09629e-07 0)
(-1.37833e-06 4.72187e-07 0)
(-1.83696e-06 4.41989e-07 0)
(-2.29613e-06 4.56466e-07 0)
(-2.79261e-06 5.15377e-07 0)
(-3.36137e-06 6.06654e-07 0)
(-4.02919e-06 7.19556e-07 0)
(-4.81602e-06 8.47971e-07 0)
(-5.73783e-06 9.88973e-07 0)
(-6.80833e-06 1.1412e-06 0)
(-8.03986e-06 1.30393e-06 0)
(-9.44363e-06 1.47654e-06 0)
(-1.10297e-05 1.65833e-06 0)
(-1.28071e-05 1.84843e-06 0)
(-1.47836e-05 2.04565e-06 0)
(-1.69651e-05 2.24837e-06 0)
(-1.9356e-05 2.45444e-06 0)
(-2.19578e-05 2.66127e-06 0)
(-2.47691e-05 2.8658e-06 0)
(-2.77843e-05 3.06458e-06 0)
(-3.09939e-05 3.25372e-06 0)
(-3.43839e-05 3.42876e-06 0)
(-3.79352e-05 3.58472e-06 0)
(-4.16236e-05 3.71616e-06 0)
(-4.54186e-05 3.81727e-06 0)
(-4.92836e-05 3.88202e-06 0)
(-5.31753e-05 3.90416e-06 0)
(-5.70436e-05 3.87729e-06 0)
(-6.0832e-05 3.79501e-06 0)
(-6.44774e-05 3.65108e-06 0)
(-6.79109e-05 3.43958e-06 0)
(-7.10582e-05 3.15542e-06 0)
(-7.38403e-05 2.79453e-06 0)
(-7.61755e-05 2.35392e-06 0)
(-7.79808e-05 1.83265e-06 0)
(-7.9174e-05 1.23261e-06 0)
(-7.96769e-05 5.57842e-07 0)
(-7.94196e-05 -1.86585e-07 0)
(-7.83371e-05 -9.94544e-07 0)
(-7.63781e-05 -1.84943e-06 0)
(-7.35121e-05 -2.73456e-06 0)
(-6.97252e-05 -3.63045e-06 0)
(-6.5026e-05 -4.51551e-06 0)
(-5.94481e-05 -5.36533e-06 0)
(-5.30508e-05 -6.15468e-06 0)
(-4.59191e-05 -6.85845e-06 0)
(-3.81627e-05 -7.45166e-06 0)
(-2.99126e-05 -7.91602e-06 0)
(-2.13191e-05 -8.23391e-06 0)
(-1.25448e-05 -8.39333e-06 0)
(-3.75978e-06 -8.387e-06 0)
(4.86338e-06 -8.21695e-06 0)
(1.31594e-05 -7.88984e-06 0)
(2.09749e-05 -7.41887e-06 0)
(2.81732e-05 -6.81997e-06 0)
(3.464e-05 -6.11529e-06 0)
(4.02856e-05 -5.32949e-06 0)
(4.50465e-05 -4.48824e-06 0)
(4.88864e-05 -3.6174e-06 0)
(5.17953e-05 -2.7417e-06 0)
(5.37874e-05 -1.88361e-06 0)
(5.48986e-05 -1.06367e-06 0)
(5.51839e-05 -2.99766e-07 0)
(5.47133e-05 3.95821e-07 0)
(5.35667e-05 1.01472e-06 0)
(5.18313e-05 1.54961e-06 0)
(4.96001e-05 1.99731e-06 0)
(4.69656e-05 2.35757e-06 0)
(4.40191e-05 2.63281e-06 0)
(4.08475e-05 2.82744e-06 0)
(3.75319e-05 2.94743e-06 0)
(3.41461e-05 2.9997e-06 0)
(3.07564e-05 2.99212e-06 0)
(2.74202e-05 2.93274e-06 0)
(2.4186e-05 2.83034e-06 0)
(2.10942e-05 2.69222e-06 0)
(1.81764e-05 2.52616e-06 0)
(1.54577e-05 2.33922e-06 0)
(1.29556e-05 2.13886e-06 0)
(1.06804e-05 1.92947e-06 0)
(8.63756e-06 1.71667e-06 0)
(6.82835e-06 1.5042e-06 0)
(5.24863e-06 1.29586e-06 0)
(3.89176e-06 1.09436e-06 0)
(2.74975e-06 9.01903e-07 0)
(1.81073e-06 7.19665e-07 0)
(1.06145e-06 5.49854e-07 0)
(4.86958e-07 3.94956e-07 0)
(7.08813e-08 2.56627e-07 0)
(-2.04179e-07 1.34848e-07 0)
(-3.57828e-07 3.21648e-08 0)
(-4.09981e-07 -5.16489e-08 0)
(-3.8091e-07 -1.13006e-07 0)
(-2.97981e-07 -1.45625e-07 0)
(-1.97229e-07 -1.40817e-07 0)
(-1.21377e-07 -1.13234e-07 0)
(-9.35774e-08 -2.30126e-07 0)
(-1.8653e-08 1.98851e-07 0)
(-5.51179e-08 4.98621e-07 0)
(-2.23929e-07 8.22725e-07 0)
(-5.69053e-07 9.72636e-07 0)
(-1.02036e-06 9.77341e-07 0)
(-1.5219e-06 9.61749e-07 0)
(-2.06376e-06 1.00565e-06 0)
(-2.66305e-06 1.12527e-06 0)
(-3.34694e-06 1.30825e-06 0)
(-4.14228e-06 1.53901e-06 0)
(-5.07256e-06 1.80666e-06 0)
(-6.15828e-06 2.10487e-06 0)
(-7.41759e-06 2.43002e-06 0)
(-8.86678e-06 2.77973e-06 0)
(-1.05205e-05 3.15203e-06 0)
(-1.23915e-05 3.54481e-06 0)
(-1.44914e-05 3.95559e-06 0)
(-1.68297e-05 4.38125e-06 0)
(-1.94137e-05 4.81785e-06 0)
(-2.22483e-05 5.26048e-06 0)
(-2.53351e-05 5.70337e-06 0)
(-2.86721e-05 6.13974e-06 0)
(-3.22523e-05 6.56182e-06 0)
(-3.60643e-05 6.96072e-06 0)
(-4.00909e-05 7.32643e-06 0)
(-4.43094e-05 7.64791e-06 0)
(-4.86903e-05 7.91323e-06 0)
(-5.3197e-05 8.10973e-06 0)
(-5.77854e-05 8.22416e-06 0)
(-6.24032e-05 8.24282e-06 0)
(-6.69904e-05 8.15178e-06 0)
(-7.1479e-05 7.93728e-06 0)
(-7.57929e-05 7.58614e-06 0)
(-7.98492e-05 7.08621e-06 0)
(-8.35583e-05 6.42711e-06 0)
(-8.68251e-05 5.6008e-06 0)
(-8.95514e-05 4.60224e-06 0)
(-9.16374e-05 3.43042e-06 0)
(-9.29853e-05 2.08932e-06 0)
(-9.35012e-05 5.87663e-07 0)
(-9.30985e-05 -1.05897e-06 0)
(-9.17015e-05 -2.82537e-06 0)
(-8.92517e-05 -4.6838e-06 0)
(-8.57115e-05 -6.59699e-06 0)
(-8.10663e-05 -8.52119e-06 0)
(-7.53286e-05 -1.04081e-05 0)
(-6.85411e-05 -1.22052e-05 0)
(-6.07785e-05 -1.38578e-05 0)
(-5.21462e-05 -1.53125e-05 0)
(-4.27795e-05 -1.65194e-05 0)
(-3.28411e-05 -1.74353e-05 0)
(-2.25143e-05 -1.80271e-05 0)
(-1.19972e-05 -1.82718e-05 0)
(-1.49771e-06 -1.81583e-05 0)
(8.77448e-06 -1.76908e-05 0)
(1.862e-05 -1.68872e-05 0)
(2.78555e-05 -1.57771e-05 0)
(3.63185e-05 -1.44002e-05 0)
(4.38741e-05 -1.28049e-05 0)
(5.04186e-05 -1.10448e-05 0)
(5.5881e-05 -9.17637e-06 0)
(6.02231e-05 -7.25548e-06 0)
(6.34393e-05 -5.33549e-06 0)
(6.55522e-05 -3.46478e-06 0)
(6.66107e-05 -1.68596e-06 0)
(6.66861e-05 -3.45911e-08 0)
(6.58669e-05 1.4619e-06 0)
(6.42536e-05 2.7833e-06 0)
(6.19541e-05 3.91818e-06 0)
(5.90811e-05 4.86087e-06 0)
(5.57474e-05 5.612e-06 0)
(5.20628e-05 6.17785e-06 0)
(4.81319e-05 6.56848e-06 0)
(4.40511e-05 6.79722e-06 0)
(3.99079e-05 6.87957e-06 0)
(3.57805e-05 6.83329e-06 0)
(3.17362e-05 6.67583e-06 0)
(2.7832e-05 6.42582e-06 0)
(2.41136e-05 6.10013e-06 0)
(2.0618e-05 5.71584e-06 0)
(1.73739e-05 5.28788e-06 0)
(1.44004e-05 4.8309e-06 0)
(1.17081e-05 4.35676e-06 0)
(9.303e-06 3.87581e-06 0)
(7.18546e-06 3.39805e-06 0)
(5.34946e-06 2.92998e-06 0)
(3.78564e-06 2.47825e-06 0)
(2.48255e-06 2.0475e-06 0)
(1.4246e-06 1.6416e-06 0)
(5.94989e-07 1.26527e-06 0)
(-2.48824e-08 9.21298e-07 0)
(-4.55885e-07 6.1394e-07 0)
(-7.18566e-07 3.44696e-07 0)
(-8.34812e-07 1.15211e-07 0)
(-8.28362e-07 -7.18804e-08 0)
(-7.23358e-07 -2.11097e-07 0)
(-5.50331e-07 -2.88879e-07 0)
(-3.52388e-07 -2.787e-07 0)
(-1.82305e-07 -1.97466e-07 0)
(-9.69559e-08 -3.49714e-07 0)
(-2.21093e-08 2.14312e-07 0)
(-2.71427e-08 5.42031e-07 0)
(-7.61383e-08 9.99401e-07 0)
(-2.66522e-07 1.3009e-06 0)
(-5.93308e-07 1.41856e-06 0)
(-1.02666e-06 1.47911e-06 0)
(-1.54491e-06 1.59103e-06 0)
(-2.14813e-06 1.79174e-06 0)
(-2.85067e-06 2.07791e-06 0)
(-3.67311e-06 2.43568e-06 0)
(-4.63723e-06 2.85283e-06 0)
(-5.76412e-06 3.32105e-06 0)
(-7.07355e-06 3.8348e-06 0)
(-8.58371e-06 4.38994e-06 0)
(-1.03111e-05 4.98282e-06 0)
(-1.22704e-05 5.60952e-06 0)
(-1.44746e-05 6.26556e-06 0)
(-1.69345e-05 6.94554e-06 0)
(-1.96589e-05 7.64283e-06 0)
(-2.26533e-05 8.34948e-06 0)
(-2.59202e-05 9.05614e-06 0)
(-2.94578e-05 9.75188e-06 0)
(-3.32599e-05 1.04241e-05 0)
(-3.73149e-05 1.10586e-05 0)
(-4.1606e-05 1.16392e-05 0)
(-4.61097e-05 1.21485e-05 0)
(-5.07959e-05 1.25674e-05 0)
(-5.56267e-05 1.28755e-05 0)
(-6.05561e-05 1.30516e-05 0)
(-6.55296e-05 1.30736e-05 0)
(-7.0484e-05 1.29189e-05 0)
(-7.53471e-05 1.25656e-05 0)
(-8.00381e-05 1.19924e-05 0)
(-8.44679e-05 1.11797e-05 0)
(-8.854e-05 1.0111e-05 0)
(-9.21513e-05 8.77322e-06 0)
(-9.51943e-05 7.15866e-06 0)
(-9.75595e-05 5.26602e-06 0)
(-9.91381e-05 3.10186e-06 0)
(-9.98249e-05 6.81882e-07 0)
(-9.95215e-05 -1.96874e-06 0)
(-9.81418e-05 -4.81188e-06 0)
(-9.56175e-05 -7.79928e-06 0)
(-9.19019e-05 -1.08709e-05 0)
(-8.69745e-05 -1.39559e-05 0)
(-8.08447e-05 -1.69754e-05 0)
(-7.35556e-05 -1.98443e-05 0)
(-6.51863e-05 -2.24744e-05 0)
(-5.58518e-05 -2.47789e-05 0)
(-4.57013e-05 -2.66778e-05 0)
(-3.49156e-05 -2.81017e-05 0)
(-2.37003e-05 -2.89976e-05 0)
(-1.22759e-05 -2.93294e-05 0)
(-8.76252e-07 -2.90809e-05 0)
(1.02623e-05 -2.82615e-05 0)
(2.09168e-05 -2.69013e-05 0)
(3.08829e-05 -2.50505e-05 0)
(3.99806e-05 -2.27759e-05 0)
(4.80621e-05 -2.01575e-05 0)
(5.50157e-05 -1.72831e-05 0)
(6.07671e-05 -1.42447e-05 0)
(6.52799e-05 -1.1133e-05 0)
(6.85537e-05 -8.03407e-06 0)
(7.06202e-05 -5.02583e-06 0)
(7.15394e-05 -2.17584e-06 0)
(7.13958e-05 4.60317e-07 0)
(7.0292e-05 2.83987e-06 0)
(6.83427e-05 4.9324e-06 0)
(6.567e-05 6.72004e-06 0)
(6.23994e-05 8.19575e-06 0)
(5.86558e-05 9.36206e-06 0)
(5.45597e-05 1.02301e-05 0)
(5.0224e-05 1.08172e-05 0)
(4.57527e-05 1.11457e-05 0)
(4.124e-05 1.12412e-05 0)
(3.67684e-05 1.11325e-05 0)
(3.24086e-05 1.08485e-05 0)
(2.82195e-05 1.04185e-05 0)
(2.42486e-05 9.86997e-06 0)
(2.05332e-05 9.22995e-06 0)
(1.71016e-05 8.52325e-06 0)
(1.39724e-05 7.77133e-06 0)
(1.11546e-05 6.99442e-06 0)
(8.65346e-06 6.20904e-06 0)
(6.46699e-06 5.4305e-06 0)
(4.58684e-06 4.67e-06 0)
(3.00188e-06 3.93742e-06 0)
(1.69723e-06 3.24096e-06 0)
(6.55601e-07 2.58678e-06 0)
(-1.43267e-07 1.98171e-06 0)
(-7.1997e-07 1.42998e-06 0)
(-1.09626e-06 9.36486e-07 0)
(-1.29563e-06 5.04024e-07 0)
(-1.34055e-06 1.34165e-07 0)
(-1.25474e-06 -1.6872e-07 0)
(-1.06408e-06 -3.95368e-07 0)
(-8.0009e-07 -5.2294e-07 0)
(-5.09014e-07 -5.09306e-07 0)
(-2.4982e-07 -3.64344e-07 0)
(-1.0219e-07 -5.10033e-07 0)
(-3.01384e-08 2.46225e-07 0)
(-6.29329e-08 5.52312e-07 0)
(-6.51194e-08 1.06466e-06 0)
(-1.38537e-07 1.4879e-06 0)
(-3.2974e-07 1.73559e-06 0)
(-6.4658e-07 1.9104e-06 0)
(-1.07599e-06 2.12414e-06 0)
(-1.61438e-06 2.42837e-06 0)
(-2.26855e-06 2.83094e-06 0)
(-3.05309e-06 3.32355e-06 0)
(-3.98645e-06 3.89593e-06 0)
(-5.08838e-06 4.53963e-06 0)
(-6.37851e-06 5.24814e-06 0)
(-7.8756e-06 6.01604e-06 0)
(-9.59714e-06 6.83814e-06 0)
(-1.15591e-05 7.70873e-06 0)
(-1.37756e-05 8.6213e-06 0)
(-1.62591e-05 9.56812e-06 0)
(-1.90195e-05 1.05399e-05 0)
(-2.20639e-05 1.15255e-05 0)
(-2.53962e-05 1.25119e-05 0)
(-2.90161e-05 1.3484e-05 0)
(-3.2919e-05 1.44243e-05 0)
(-3.70949e-05 1.53132e-05 0)
(-4.15284e-05 1.61286e-05 0)
(-4.61973e-05 1.68462e-05 0)
(-5.10727e-05 1.74395e-05 0)
(-5.61175e-05 1.78802e-05 0)
(-6.12864e-05 1.81384e-05 0)
(-6.65246e-05 1.81832e-05 0)
(-7.17683e-05 1.7983e-05 0)
(-7.69438e-05 1.75063e-05 0)
(-8.19677e-05 1.67228e-05 0)
(-8.67471e-05 1.56046e-05 0)
(-9.11804e-05 1.41275e-05 0)
(-9.51579e-05 1.22727e-05 0)
(-9.8564e-05 1.00282e-05 0)
(-0.000101279 7.39139e-06 0)
(-0.000103183 4.37062e-06 0)
(-0.00010416 9.87436e-07 0)
(-0.000104096 -2.72605e-06 0)
(-0.00010289 -6.71512e-06 0)
(-0.000100461 -1.0912e-05 0)
(-9.67495e-05 -1.52324e-05 0)
(-9.17228e-05 -1.9576e-05 0)
(-8.53829e-05 -2.38302e-05 0)
(-7.77684e-05 -2.78732e-05 0)
(-6.89588e-05 -3.15787e-05 0)
(-5.90757e-05 -3.48223e-05 0)
(-4.82808e-05 -3.74885e-05 0)
(-3.67737e-05 -3.94776e-05 0)
(-2.47814e-05 -4.07142e-05 0)
(-1.25493e-05 -4.11433e-05 0)
(-3.4159e-07 -4.07462e-05 0)
(1.15758e-05 -3.95364e-05 0)
(2.29535e-05 -3.7559e-05 0)
(3.3563e-05 -3.4888e-05 0)
(4.32053e-05 -3.16214e-05 0)
(5.17192e-05 -2.78756e-05 0)
(5.89847e-05 -2.3778e-05 0)
(6.4926e-05 -1.94611e-05 0)
(6.95102e-05 -1.50546e-05 0)
(7.2745e-05 -1.06807e-05 0)
(7.46736e-05 -6.44976e-06 0)
(7.53707e-05 -2.45628e-06 0)
(7.49366e-05 1.22278e-06 0)
(7.34901e-05 4.52952e-06 0)
(7.11619e-05 7.42353e-06 0)
(6.80894e-05 9.88161e-06 0)
(6.44114e-05 1.18966e-05 0)
(6.02647e-05 1.34745e-05 0)
(5.57794e-05 1.46326e-05 0)
(5.10765e-05 1.53971e-05 0)
(4.62658e-05 1.58012e-05 0)
(4.14459e-05 1.58827e-05 0)
(3.6702e-05 1.5682e-05 0)
(3.2106e-05 1.52405e-05 0)
(2.77164e-05 1.45989e-05 0)
(2.35801e-05 1.37967e-05 0)
(1.97335e-05 1.28712e-05 0)
(1.6202e-05 1.18569e-05 0)
(1.30018e-05 1.07839e-05 0)
(1.01398e-05 9.67942e-06 0)
(7.61798e-06 8.56807e-06 0)
(5.43209e-06 7.46833e-06 0)
(3.57041e-06 6.39772e-06 0)
(2.01924e-06 5.369e-06 0)
(7.61125e-07 4.39447e-06 0)
(-2.23765e-07 3.48248e-06 0)
(-9.5705e-07 2.64046e-06 0)
(-1.46152e-06 1.87437e-06 0)
(-1.76081e-06 1.18941e-06 0)
(-1.87977e-06 5.88282e-07 0)
(-1.84094e-06 7.42122e-08 0)
(-1.66835e-06 -3.48067e-07 0)
(-1.38878e-06 -6.65732e-07 0)
(-1.03435e-06 -8.44847e-07 0)
(-6.5312e-07 -8.24606e-07 0)
(-3.10168e-07 -6.02418e-07 0)
(-1.05945e-07 -7.02413e-07 0)
(-3.37494e-08 3.04549e-07 0)
(-9.24179e-08 5.73695e-07 0)
(-7.79422e-08 1.07488e-06 0)
(-7.31909e-08 1.56484e-06 0)
(-1.48063e-07 1.92471e-06 0)
(-3.4014e-07 2.22264e-06 0)
(-6.53844e-07 2.5566e-06 0)
(-1.09028e-06 2.98183e-06 0)
(-1.65531e-06 3.51411e-06 0)
(-2.36076e-06 4.15102e-06 0)
(-3.22271e-06 4.88566e-06 0)
(-4.2596e-06 5.71077e-06 0)
(-5.49054e-06 6.61975e-06 0)
(-6.93442e-06 7.60649e-06 0)
(-8.60946e-06 8.66462e-06 0)
(-1.05327e-05 9.78705e-06 0)
(-1.27197e-05 1.09655e-05 0)
(-1.51844e-05 1.219e-05 0)
(-1.79386e-05 1.34487e-05 0)
(-2.09916e-05 1.47275e-05 0)
(-2.43491e-05 1.60099e-05 0)
(-2.80135e-05 1.72764e-05 0)
(-3.19823e-05 1.8505e-05 0)
(-3.62482e-05 1.96706e-05 0)
(-4.07981e-05 2.0745e-05 0)
(-4.56124e-05 2.1697e-05 0)
(-5.06643e-05 2.24926e-05 0)
(-5.59188e-05 2.30952e-05 0)
(-6.13318e-05 2.34658e-05 0)
(-6.68497e-05 2.3564e-05 0)
(-7.24087e-05 2.33481e-05 0)
(-7.79344e-05 2.27763e-05 0)
(-8.33414e-05 2.18081e-05 0)
(-8.8533e-05 2.04057e-05 0)
(-9.34021e-05 1.85359e-05 0)
(-9.78319e-05 1.61722e-05 0)
(-0.000101697 1.32966e-05 0)
(-0.000104867 9.90292e-06 0)
(-0.000107206 5.99888e-06 0)
(-0.000108585 1.60886e-06 0)
(-0.000108871 -3.22065e-06 0)
(-0.000107941 -8.42729e-06 0)
(-0.000105698 -1.39221e-05 0)
(-0.000102063 -1.95943e-05 0)
(-9.69866e-05 -2.53119e-05 0)
(-9.04581e-05 -3.09243e-05 0)
(-8.25082e-05 -3.62683e-05 0)
(-7.32153e-05 -4.11736e-05 0)
(-6.27073e-05 -4.54715e-05 0)
(-5.11605e-05 -4.90045e-05 0)
(-3.87986e-05 -5.16359e-05 0)
(-2.58744e-05 -5.32612e-05 0)
(-1.26681e-05 -5.38079e-05 0)
(5.15557e-07 -5.32484e-05 0)
(1.33737e-05 -5.1603e-05 0)
(2.56205e-05 -4.89344e-05 0)
(3.69964e-05 -4.53449e-05 0)
(4.72777e-05 -4.09696e-05 0)
(5.62856e-05 -3.59681e-05 0)
(6.38912e-05 -3.05145e-05 0)
(7.00175e-05 -2.47875e-05 0)
(7.46381e-05 -1.89619e-05 0)
(7.77724e-05 -1.32008e-05 0)
(7.948e-05 -7.64982e-06 0)
(7.98551e-05 -2.4326e-06 0)
(7.902e-05 2.35089e-06 0)
(7.71152e-05 6.62839e-06 0)
(7.42915e-05 1.03502e-05 0)
(7.07056e-05 1.34892e-05 0)
(6.65135e-05 1.60399e-05 0)
(6.18663e-05 1.80139e-05 0)
(5.69056e-05 1.94375e-05 0)
(5.17616e-05 2.03484e-05 0)
(4.65512e-05 2.07919e-05 0)
(4.13765e-05 2.08201e-05 0)
(3.63249e-05 2.04864e-05 0)
(3.14685e-05 1.98467e-05 0)
(2.68651e-05 1.89538e-05 0)
(2.25599e-05 1.78599e-05 0)
(1.85857e-05 1.6614e-05 0)
(1.49646e-05 1.52598e-05 0)
(1.17088e-05 1.3837e-05 0)
(8.82196e-06 1.23797e-05 0)
(6.30124e-06 1.0919e-05 0)
(4.13798e-06 9.4799e-06 0)
(2.31795e-06 8.08297e-06 0)
(8.24229e-07 6.74597e-06 0)
(-3.63589e-07 5.48274e-06 0)
(-1.26901e-06 4.3048e-06 0)
(-1.9159e-06 3.21981e-06 0)
(-2.32796e-06 2.23486e-06 0)
(-2.53067e-06 1.35415e-06 0)
(-2.55017e-06 5.81863e-07 0)
(-2.40992e-06 -7.85817e-08 0)
(-2.13521e-06 -6.2157e-07 0)
(-1.75221e-06 -1.03033e-06 0)
(-1.29403e-06 -1.26084e-06 0)
(-8.12917e-07 -1.22889e-06 0)
(-3.77745e-07 -9.11698e-07 0)
(-1.10209e-07 -9.28108e-07 0)
(-2.99242e-08 3.67991e-07 0)
(-7.84473e-08 5.93156e-07 0)
(-3.31202e-08 1.04398e-06 0)
(4.06206e-08 1.5555e-06 0)
(6.80035e-08 2.00052e-06 0)
(-3.45295e-09 2.41314e-06 0)
(-1.93193e-07 2.8711e-06 0)
(-5.10077e-07 3.4262e-06 0)
(-9.62795e-07 4.09787e-06 0)
(-1.56314e-06 4.88718e-06 0)
(-2.32652e-06 5.79121e-06 0)
(-3.27108e-06 6.80404e-06 0)
(-4.41586e-06 7.91978e-06 0)
(-5.78008e-06 9.13201e-06 0)
(-7.38278e-06 1.04337e-05 0)
(-9.24225e-06 1.18167e-05 0)
(-1.13757e-05 1.32715e-05 0)
(-1.37992e-05 1.4786e-05 0)
(-1.65268e-05 1.63462e-05 0)
(-1.95701e-05 1.79351e-05 0)
(-2.29381e-05 1.95328e-05 0)
(-2.66359e-05 2.1116e-05 0)
(-3.06643e-05 2.2658e-05 0)
(-3.50192e-05 2.41284e-05 0)
(-3.9691e-05 2.54929e-05 0)
(-4.46634e-05 2.67131e-05 0)
(-4.99127e-05 2.77473e-05 0)
(-5.54064e-05 2.85501e-05 0)
(-6.11031e-05 2.90732e-05 0)
(-6.69507e-05 2.92657e-05 0)
(-7.28863e-05 2.90747e-05 0)
(-7.8835e-05 2.84471e-05 0)
(-8.47092e-05 2.73307e-05 0)
(-9.04084e-05 2.56759e-05 0)
(-9.58194e-05 2.34387e-05 0)
(-0.000100817 2.0582e-05 0)
(-0.000105264 1.70798e-05 0)
(-0.000109017 1.29193e-05 0)
(-0.000111922 8.10584e-06 0)
(-0.000113826 2.66633e-06 0)
(-0.000114576 -3.34876e-06 0)
(-0.00011403 -9.86273e-06 0)
(-0.000112056 -1.67665e-05 0)
(-0.000108553 -2.3922e-05 0)
(-0.000103448 -3.1162e-05 0)
(-9.67127e-05 -3.8294e-05 0)
(-8.83656e-05 -4.51064e-05 0)
(-7.84815e-05 -5.1377e-05 0)
(-6.71953e-05 -5.68835e-05 0)
(-5.47011e-05 -6.14168e-05 0)
(-4.12522e-05 -6.4794e-05 0)
(-2.71407e-05 -6.68758e-05 0)
(-1.26892e-05 -6.75688e-05 0)
(1.74477e-06 -6.6828e-05 0)
(1.5804e-05 -6.46858e-05 0)
(2.91567e-05 -6.12261e-05 0)
(4.15017e-05 -5.65858e-05 0)
(5.25822e-05 -5.09458e-05 0)
(6.21976e-05 -4.4518e-05 0)
(7.02087e-05 -3.75322e-05 0)
(7.65386e-05 -3.02225e-05 0)
(8.11703e-05 -2.28163e-05 0)
(8.41406e-05 -1.55235e-05 0)
(8.55322e-05 -8.52943e-06 0)
(8.54656e-05 -1.99002e-06 0)
(8.40927e-05 3.97433e-06 0)
(8.15829e-05 9.27387e-06 0)
(7.81126e-05 1.38513e-05 0)
(7.38633e-05 1.76789e-05 0)
(6.90131e-05 2.07553e-05 0)
(6.37308e-05 2.31012e-05 0)
(5.81726e-05 2.47545e-05 0)
(5.2479e-05 2.57672e-05 0)
(4.67745e-05 2.62004e-05 0)
(4.11656e-05 2.6122e-05 0)
(3.57418e-05 2.56014e-05 0)
(3.05746e-05 2.47093e-05 0)
(2.57193e-05 2.35139e-05 0)
(2.1219e-05 2.20807e-05 0)
(1.71018e-05 2.04696e-05 0)
(1.33845e-05 1.87362e-05 0)
(1.00736e-05 1.69277e-05 0)
(7.16765e-06 1.50873e-05 0)
(4.65982e-06 1.32511e-05 0)
(2.53535e-06 1.14505e-05 0)
(7.75415e-07 9.70968e-06 0)
(-6.40823e-07 8.04964e-06 0)
(-1.73744e-06 6.48672e-06 0)
(-2.54099e-06 5.03321e-06 0)
(-3.07798e-06 3.6982e-06 0)
(-3.37494e-06 2.4898e-06 0)
(-3.45873e-06 1.40995e-06 0)
(-3.35593e-06 4.6474e-07 0)
(-3.09204e-06 -3.43338e-07 0)
(-2.69293e-06 -1.00777e-06 0)
(-2.18639e-06 -1.50727e-06 0)
(-1.60532e-06 -1.78744e-06 0)
(-1.0031e-06 -1.73766e-06 0)
(-4.59654e-07 -1.3061e-06 0)
(-1.17523e-07 -1.19236e-06 0)
(-1.97245e-08 4.08925e-07 0)
(-1.95148e-08 5.7451e-07 0)
(8.76357e-08 9.55219e-07 0)
(2.43217e-07 1.46056e-06 0)
(3.74294e-07 1.96727e-06 0)
(4.23473e-07 2.48164e-06 0)
(3.62902e-07 3.06037e-06 0)
(1.77291e-07 3.74742e-06 0)
(-1.47442e-07 4.56248e-06 0)
(-6.24016e-07 5.5102e-06 0)
(-1.26787e-06 6.58998e-06 0)
(-2.09843e-06 7.79629e-06 0)
(-3.1351e-06 9.12536e-06 0)
(-4.39807e-06 1.05703e-05 0)
(-5.90737e-06 1.21239e-05 0)
(-7.68286e-06 1.37777e-05 0)
(-9.74393e-06 1.55208e-05 0)
(-1.2109e-05 1.73398e-05 0)
(-1.47951e-05 1.92185e-05 0)
(-1.78169e-05 2.11376e-05 0)
(-2.11867e-05 2.30739e-05 0)
(-2.49133e-05 2.50006e-05 0)
(-2.90015e-05 2.68866e-05 0)
(-3.34516e-05 2.86961e-05 0)
(-3.8258e-05 3.03885e-05 0)
(-4.34089e-05 3.19187e-05 0)
(-4.88842e-05 3.32365e-05 0)
(-5.46555e-05 3.42878e-05 0)
(-6.06845e-05 3.50138e-05 0)
(-6.69218e-05 3.53523e-05 0)
(-7.3306e-05 3.52385e-05 0)
(-7.97622e-05 3.46062e-05 0)
(-8.62008e-05 3.33898e-05 0)
(-9.25175e-05 3.1526e-05 0)
(-9.85924e-05 2.89567e-05 0)
(-0.000104291 2.56319e-05 0)
(-0.000109462 2.15135e-05 0)
(-0.000113945 1.65794e-05 0)
(-0.000117565 1.08288e-05 0)
(-0.000120146 4.28682e-06 0)
(-0.000121506 -2.99252e-06 0)
(-0.000121465 -1.09216e-05 0)
(-0.000119861 -1.93715e-05 0)
(-0.000116559 -2.81751e-05 0)
(-0.000111456 -3.7127e-05 0)
(-0.000104495 -4.59865e-05 0)
(-9.56788e-05 -5.44853e-05 0)
(-8.50742e-05 -6.23383e-05 0)
(-7.28224e-05 -6.92573e-05 0)
(-5.91395e-05 -7.49686e-05 0)
(-4.4319e-05 -7.92323e-05 0)
(-2.87032e-05 -8.18611e-05 0)
(-1.2667e-05 -8.27296e-05 0)
(3.35904e-06 -8.17868e-05 0)
(1.8943e-05 -7.90667e-05 0)
(3.36944e-05 -7.46827e-05 0)
(4.72569e-05 -6.88164e-05 0)
(5.93314e-05 -6.17054e-05 0)
(6.96902e-05 -5.36269e-05 0)
(7.81823e-05 -4.4879e-05 0)
(8.4733e-05 -3.57632e-05 0)
(8.93399e-05 -2.65693e-05 0)
(9.20646e-05 -1.75618e-05 0)
(9.30207e-05 -8.97088e-06 0)
(9.23674e-05 -9.86999e-07 0)
(9.02932e-05 6.24887e-06 0)
(8.70017e-05 1.26287e-05 0)
(8.27059e-05 1.80909e-05 0)
(7.76185e-05 2.26105e-05 0)
(7.19439e-05 2.61942e-05 0)
(6.58722e-05 2.88757e-05 0)
(5.95769e-05 3.07088e-05 0)
(5.32112e-05 3.17636e-05 0)
(4.69076e-05 3.21205e-05 0)
(4.07771e-05 3.18659e-05 0)
(3.49096e-05 3.10891e-05 0)
(2.9376e-05 2.98771e-05 0)
(2.4229e-05 2.83145e-05 0)
(1.95059e-05 2.64827e-05 0)
(1.52294e-05 2.44518e-05 0)
(1.14091e-05 2.229e-05 0)
(8.0448e-06 2.00532e-05 0)
(5.12929e-06 1.7793e-05 0)
(2.64776e-06 1.55511e-05 0)
(5.79709e-07 1.33627e-05 0)
(-1.09933e-06 1.12576e-05 0)
(-2.41432e-06 9.25803e-06 0)
(-3.39454e-06 7.38246e-06 0)
(-4.07091e-06 5.64319e-06 0)
(-4.47164e-06 4.05122e-06 0)
(-4.62768e-06 2.61319e-06 0)
(-4.56683e-06 1.33285e-06 0)
(-4.31603e-06 2.12746e-07 0)
(-3.90408e-06 -7.43561e-07 0)
(-3.35697e-06 -1.52931e-06 0)
(-2.70332e-06 -2.11956e-06 0)
(-1.97684e-06 -2.44613e-06 0)
(-1.23275e-06 -2.37061e-06 0)
(-5.59535e-07 -1.80397e-06 0)
(-1.25926e-07 -1.50515e-06 0)
(-5.7849e-09 4.06057e-07 0)
(7.21933e-08 4.83293e-07 0)
(2.7277e-07 7.81061e-07 0)
(5.32406e-07 1.26572e-06 0)
(7.80414e-07 1.81813e-06 0)
(9.59458e-07 2.42198e-06 0)
(1.03692e-06 3.11538e-06 0)
(9.92975e-07 3.93312e-06 0)
(8.11346e-07 4.89334e-06 0)
(4.77154e-07 6.00325e-06 0)
(-2.85654e-08 7.26208e-06 0)
(-7.25221e-07 8.66723e-06 0)
(-1.63277e-06 1.02155e-05 0)
(-2.77376e-06 1.19006e-05 0)
(-4.16898e-06 1.37154e-05 0)
(-5.84044e-06 1.56511e-05 0)
(-7.81017e-06 1.76961e-05 0)
(-1.00995e-05 1.98358e-05 0)
(-1.27287e-05 2.20526e-05 0)
(-1.57161e-05 2.43249e-05 0)
(-1.90781e-05 2.6627e-05 0)
(-2.28279e-05 2.89287e-05 0)
(-2.69751e-05 3.11946e-05 0)
(-3.15252e-05 3.33836e-05 0)
(-3.64779e-05 3.54492e-05 0)
(-4.18263e-05 3.7339e-05 0)
(-4.75558e-05 3.89949e-05 0)
(-5.36427e-05 4.03528e-05 0)
(-6.00532e-05 4.13431e-05 0)
(-6.67418e-05 4.18916e-05 0)
(-7.36493e-05 4.192e-05 0)
(-8.07016e-05 4.13478e-05 0)
(-8.78082e-05 4.00934e-05 0)
(-9.48611e-05 3.80773e-05 0)
(-0.000101734 3.52242e-05 0)
(-0.000108281 3.14672e-05 0)
(-0.000114338 2.67524e-05 0)
(-0.000119723 2.10438e-05 0)
(-0.000124237 1.43292e-05 0)
(-0.00012767 6.62672e-06 0)
(-0.000129807 -2.0049e-06 0)
(-0.000130431 -1.14765e-05 0)
(-0.000129331 -2.16379e-05 0)
(-0.000126329 -3.22928e-05 0)
(-0.00012128 -4.31935e-05 0)
(-0.000114091 -5.40439e-05 0)
(-0.000104736 -6.45079e-05 0)
(-9.32713e-05 -7.42238e-05 0)
(-7.98423e-05 -8.28213e-05 0)
(-6.46914e-05 -8.99452e-05 0)
(-4.81587e-05 -9.52802e-05 0)
(-3.06507e-05 -9.85733e-05 0)
(-1.26261e-05 -9.9664e-05 0)
(5.39774e-06 -9.84893e-05 0)
(2.28993e-05 -9.50834e-05 0)
(3.93996e-05 -8.95999e-05 0)
(5.44728e-05 -8.22772e-05 0)
(6.77666e-05 -7.3426e-05 0)
(7.902e-05 -6.34056e-05 0)
(8.80691e-05 -5.26002e-05 0)
(9.48459e-05 -4.1394e-05 0)
(9.93702e-05 -3.01514e-05 0)
(0.000101738 -1.92008e-05 0)
(0.000102106 -8.82333e-06 0)
(0.000100685 7.53637e-07 0)
(9.77084e-05 9.36194e-06 0)
(9.34251e-05 1.68853e-05 0)
(8.80946e-05 2.32597e-05 0)
(8.1967e-05 2.8467e-05 0)
(7.52786e-05 3.25271e-05 0)
(6.82457e-05 3.54916e-05 0)
(6.10606e-05 3.74368e-05 0)
(5.38906e-05 3.8455e-05 0)
(4.68765e-05 3.86509e-05 0)
(4.01336e-05 3.8133e-05 0)
(3.37519e-05 3.70127e-05 0)
(2.77985e-05 3.53969e-05 0)
(2.2323e-05 3.33889e-05 0)
(1.73538e-05 3.10846e-05 0)
(1.29063e-05 2.85697e-05 0)
(8.98269e-06 2.59212e-05 0)
(5.5731e-06 2.32064e-05 0)
(2.66197e-06 2.04833e-05 0)
(2.25957e-07 1.77994e-05 0)
(-1.76172e-06 1.51947e-05 0)
(-3.33264e-06 1.27016e-05 0)
(-4.51902e-06 1.03449e-05 0)
(-5.35508e-06 8.14212e-06 0)
(-5.87472e-06 6.10727e-06 0)
(-6.11023e-06 4.25207e-06 0)
(-6.09545e-06 2.58014e-06 0)
(-5.86168e-06 1.0962e-06 0)
(-5.43743e-06 -1.99359e-07 0)
(-4.8511e-06 -1.30386e-06 0)
(-4.13108e-06 -2.21009e-06 0)
(-3.30608e-06 -2.89003e-06 0)
(-2.41062e-06 -3.26068e-06 0)
(-1.50232e-06 -3.15121e-06 0)
(-6.79318e-07 -2.42284e-06 0)
(-1.37713e-07 -1.87616e-06 0)
(1.10461e-08 3.44904e-07 0)
(1.86426e-07 2.92509e-07 0)
(5.06702e-07 4.94796e-07 0)
(8.9517e-07 9.50099e-07 0)
(1.27891e-06 1.53801e-06 0)
(1.60261e-06 2.22185e-06 0)
(1.83224e-06 3.02305e-06 0)
(1.94514e-06 3.96868e-06 0)
(1.92288e-06 5.07473e-06 0)
(1.7475e-06 6.34804e-06 0)
(1.39923e-06 7.78887e-06 0)
(8.57948e-07 9.39745e-06 0)
(1.00943e-07 1.11697e-05 0)
(-8.95823e-07 1.31019e-05 0)
(-2.15483e-06 1.51872e-05 0)
(-3.7005e-06 1.74166e-05 0)
(-5.55785e-06 1.9778e-05 0)
(-7.75148e-06 2.22565e-05 0)
(-1.03054e-05 2.48331e-05 0)
(-1.32423e-05 2.74847e-05 0)
(-1.65831e-05 3.01833e-05 0)
(-2.03464e-05 3.28956e-05 0)
(-2.45477e-05 3.55823e-05 0)
(-2.91984e-05 3.81974e-05 0)
(-3.43044e-05 4.06886e-05 0)
(-3.98653e-05 4.29963e-05 0)
(-4.58728e-05 4.50539e-05 0)
(-5.23099e-05 4.67873e-05 0)
(-5.91485e-05 4.81156e-05 0)
(-6.63479e-05 4.89514e-05 0)
(-7.38531e-05 4.92019e-05 0)
(-8.15921e-05 4.877e-05 0)
(-8.94747e-05 4.75561e-05 0)
(-9.73904e-05 4.54609e-05 0)
(-0.000105206 4.23886e-05 0)
(-0.000112766 3.82509e-05 0)
(-0.00011989 3.2973e-05 0)
(-0.000126372 2.6499e-05 0)
(-0.000131986 1.87998e-05 0)
(-0.000136484 9.88156e-06 0)
(-0.000139613 -2.05783e-07 0)
(-0.000141101 -1.13634e-05 0)
(-0.00014068 -2.34316e-05 0)
(-0.000138117 -3.61833e-05 0)
(-0.00013321 -4.93241e-05 0)
(-0.000125812 -6.24943e-05 0)
(-0.000115862 -7.52773e-05 0)
(-0.000103391 -8.72162e-05 0)
(-8.85468e-05 -9.78372e-05 0)
(-7.16012e-05 -0.000106679 0)
(-5.29497e-05 -0.000113327 0)
(-3.30895e-05 -0.000117447 0)
(-1.25853e-05 -0.000118827 0)
(7.93754e-06 -0.000117372 0)
(2.78303e-05 -0.000113141 0)
(4.64987e-05 -0.000106329 0)
(6.34292e-05 -9.72488e-05 0)
(7.82015e-05 -8.63079e-05 0)
(9.05147e-05 -7.39717e-05 0)
(0.000100193 -6.07327e-05 0)
(0.000107181 -4.70777e-05 0)
(0.000111532 -3.34622e-05 0)
(0.000113392 -2.02904e-05 0)
(0.000112975 -7.90129e-06 0)
(0.000110552 3.44035e-06 0)
(0.000106424 1.35385e-05 0)
(0.000100899 2.22719e-05 0)
(9.42871e-05 2.95797e-05 0)
(8.68855e-05 3.5457e-05 0)
(7.89682e-05 3.99449e-05 0)
(7.07817e-05 4.31199e-05 0)
(6.25402e-05 4.50866e-05 0)
(5.44251e-05 4.59667e-05 0)
(4.65854e-05 4.58937e-05 0)
(3.91387e-05 4.50039e-05 0)
(3.21734e-05 4.34329e-05 0)
(2.57519e-05 4.13114e-05 0)
(1.99164e-05 3.87642e-05 0)
(1.46863e-05 3.59011e-05 0)
(1.00655e-05 3.28249e-05 0)
(6.04532e-06 2.9623e-05 0)
(2.60634e-06 2.63723e-05 0)
(-2.7825e-07 2.31374e-05 0)
(-2.64133e-06 1.99722e-05 0)
(-4.5185e-06 1.69188e-05 0)
(-5.94948e-06 1.40119e-05 0)
(-6.97414e-06 1.12777e-05 0)
(-7.63246e-06 8.73466e-06 0)
(-7.96117e-06 6.39641e-06 0)
(-7.99894e-06 4.27076e-06 0)
(-7.78379e-06 2.36177e-06 0)
(-7.34715e-06 6.71842e-07 0)
(-6.7201e-06 -7.98938e-07 0)
(-5.93305e-06 -2.0504e-06 0)
(-5.01517e-06 -3.07552e-06 0)
(-3.99473e-06 -3.84197e-06 0)
(-2.9067e-06 -4.25315e-06 0)
(-1.81072e-06 -4.10095e-06 0)
(-8.16937e-07 -3.18341e-06 0)
(-1.51628e-07 -2.31403e-06 0)
(3.0076e-08 2.16462e-07 0)
(3.17612e-07 -1.94207e-08 0)
(7.78668e-07 7.18051e-08 0)
(1.31894e-06 4.91719e-07 0)
(1.85989e-06 1.10799e-06 0)
(2.34688e-06 1.86492e-06 0)
(2.74596e-06 2.76827e-06 0)
(3.0331e-06 3.83797e-06 0)
(3.18818e-06 5.08772e-06 0)
(3.19132e-06 6.5242e-06 0)
(3.02147e-06 8.14968e-06 0)
(2.65635e-06 9.96457e-06 0)
(2.07238e-06 1.19662e-05 0)