/*--------------------------------*- C++ -*----------------------------------*\
| =========                 |                                                 |
| \\      /  F ield         | OpenFOAM: The Open Source CFD Toolbox           |
|  \\    /   O peration     | Version:  2312                                  |
|   \\  /    A nd           | Website:  www.openfoam.com                      |
|    \\/     M anipulation  |                                                 |
\*---------------------------------------------------------------------------*/
FoamFile
{
    version     2.0;
    format      ascii;
    arch        "LSB;label=32;scalar=64";
    class       surfaceScalarField;
    location    "0.25";
    object      alphaPhi0.water;
}
// * * * * * * * * * * * * * * * * * * * * * * * * * * * * * * * * * * * * * //

dimensions      [0 3 -1 0 0 0 0];

oriented        oriented;

internalField   nonuniform List<scalar> 
19800
(
-1.02141e-12
-1.70056e-12
-2.02455e-12
1.00238e-12
-3.07835e-12
1.05247e-12
-3.1763e-12
9.68128e-14
-2.61321e-12
-5.63652e-13
-1.78955e-12
-8.2355e-13
-9.54378e-13
-8.34572e-13
-2.05431e-13
-7.4816e-13
4.2761e-13
-6.32402e-13
9.43778e-13
-5.15903e-13
1.34492e-12
-4.01285e-13
1.63417e-12
-2.89666e-13
1.82587e-12
-1.92162e-13
1.91156e-12
-8.59974e-14
1.89046e-12
2.10198e-14
1.7658e-12
1.24698e-13
1.53041e-12
2.35374e-13
1.18294e-12
3.47198e-13
7.24739e-13
4.57605e-13
1.53494e-13
5.70398e-13
-5.28942e-13
6.81534e-13
-1.32047e-12
7.90791e-13
-2.20764e-12
8.86773e-13
-3.17794e-12
9.70277e-13
-4.21277e-12
1.03514e-12
-5.28896e-12
1.07672e-12
-6.37858e-12
1.09026e-12
-7.44316e-12
1.0652e-12
-8.44498e-12
1.00228e-12
-9.34084e-12
8.96006e-13
-1.00809e-11
7.39697e-13
-1.06129e-11
5.30896e-13
-1.08849e-11
2.70259e-13
-1.08369e-11
-5.02674e-14
-1.04131e-11
-4.26232e-13
-9.5753e-12
-8.4002e-13
-8.25436e-12
-1.32252e-12
-6.41417e-12
-1.84098e-12
-4.00841e-12
-2.40588e-12
-1.04603e-12
-2.96213e-12
2.52415e-12
-3.56993e-12
6.70102e-12
-4.17687e-12
1.14739e-11
-4.77317e-12
1.68091e-11
-5.33554e-12
2.26765e-11
-5.86747e-12
2.90081e-11
-6.33148e-12
3.57307e-11
-6.72223e-12
4.27583e-11
-7.02716e-12
4.99899e-11
-7.23151e-12
5.73159e-11
-7.32631e-12
6.46225e-11
-7.3074e-12
7.17938e-11
-7.17213e-12
7.87136e-11
-6.92063e-12
8.52705e-11
-6.55765e-12
9.13635e-11
-6.09367e-12
9.6902e-11
-5.53941e-12
1.0181e-10
-4.90915e-12
1.06019e-10
-4.21018e-12
1.09492e-10
-3.47414e-12
1.12204e-10
-2.71268e-12
1.14143e-10
-1.9388e-12
1.15308e-10
-1.1652e-12
1.15721e-10
-4.13975e-13
1.15422e-10
2.98011e-13
1.14452e-10
9.69662e-13
1.12864e-10
1.5864e-12
1.1072e-10
2.14615e-12
1.08079e-10
2.64207e-12
1.05008e-10
3.07169e-12
1.01576e-10
3.43384e-12
9.78448e-11
3.72935e-12
9.38826e-11
3.96315e-12
8.97478e-11
4.13711e-12
8.54895e-11
4.25639e-12
8.1163e-11
4.3277e-12
7.68116e-11
4.35176e-12
7.24699e-11
4.33987e-12
6.817e-11
4.30027e-12
6.39406e-11
4.22851e-12
5.97965e-11
4.14125e-12
5.57578e-11
4.03719e-12
5.18412e-11
3.91526e-12
4.80492e-11
3.78978e-12
4.43819e-11
3.66742e-12
4.08457e-11
3.53455e-12
3.74301e-11
3.41132e-12
3.41512e-11
3.28102e-12
3.10015e-11
3.15044e-12
2.79811e-11
3.01573e-12
2.51014e-11
2.88059e-12
2.2347e-11
2.75493e-12
1.97142e-11
2.63165e-12
1.71841e-11
2.5312e-12
1.47372e-11
2.44681e-12
1.2348e-11
2.38984e-12
1.0002e-11
2.34935e-12
7.67606e-12
2.32623e-12
5.33762e-12
2.33617e-12
2.83447e-12
2.50431e-12
2.83505e-12
1.86309e-12
-3.56444e-12
2.46701e-12
3.96167e-13
1.73e-12
1.78787e-12
1.04178e-12
7.84394e-13
8.75916e-13
-3.9749e-13
1.05818e-12
-1.00492e-12
1.39875e-12
-1.17414e-12
1.76299e-12
-1.11177e-12
2.07475e-12
-9.44144e-13
2.28111e-12
-7.22808e-13
2.35854e-12
-4.79568e-13
2.2854e-12
-2.1735e-13
2.04228e-12
5.04268e-14
1.62299e-12
3.33067e-13
1.01462e-12
6.29287e-13
2.03858e-13
9.3521e-13
-8.13269e-13
1.25185e-12
-2.04557e-12
1.57841e-12
-3.49837e-12
1.90901e-12
-5.17054e-12
2.2412e-12
-7.05942e-12
2.56935e-12
-9.154e-12
2.88482e-12
-1.14432e-11
3.17593e-12
-1.39056e-11
3.4332e-12
-1.65136e-11
3.64384e-12
-1.92313e-11
3.79537e-12
-2.20142e-11
3.87404e-12
-2.48135e-11
3.86507e-12
-2.75697e-11
3.7586e-12
-3.02156e-11
3.54116e-12
-3.26792e-11
3.20135e-12
-3.48811e-11
2.72972e-12
-3.67367e-11
2.12198e-12
-3.81605e-11
1.36955e-12
-3.90682e-11
4.78027e-13
-3.93628e-11
-5.4775e-13
-3.89769e-11
-1.70956e-12
-3.78302e-11
-2.98774e-12
-3.58682e-11
-4.36745e-12
-3.30149e-11
-5.81516e-12
-2.92608e-11
-7.32413e-12
-2.45874e-11
-8.85074e-12
-1.90005e-11
-1.03607e-11
-1.25217e-11
-1.18145e-11
-5.23717e-12
-1.31518e-11
2.80062e-12
-1.43687e-11
1.14875e-11
-1.54087e-11
2.06922e-11
-1.6232e-11
3.02691e-11
-1.68094e-11
4.00643e-11
-1.71229e-11
4.99021e-11
-1.7147e-11
5.96173e-11
-1.68888e-11
6.90412e-11
-1.63457e-11
7.80092e-11
-1.55265e-11
8.63678e-11
-1.44533e-11
9.39832e-11
-1.31563e-11
1.00742e-10
-1.167e-11
1.06586e-10
-1.00549e-11
1.11417e-10
-8.30576e-12
1.15204e-10
-6.50126e-12
1.17939e-10
-4.67386e-12
1.19639e-10
-2.86623e-12
1.20325e-10
-1.10305e-12
1.20056e-10
5.66231e-13
1.18894e-10
2.13252e-12
1.16918e-10
3.56271e-12
1.14219e-10
4.84753e-12
1.10887e-10
5.97672e-12
1.07015e-10
6.94322e-12
1.02703e-10
7.74726e-12
9.80407e-11
8.39218e-12
9.31193e-11
8.88358e-12
8.80259e-11
9.23389e-12
8.28323e-11
9.44923e-12
7.76074e-11
9.55066e-12
7.24146e-11
9.54485e-12
6.73023e-11
9.45049e-12
6.23176e-11
9.28216e-12
5.7491e-11
9.05318e-12
5.28508e-11
8.77776e-12
4.84163e-11
8.4677e-12
4.42021e-11
8.12911e-12
4.02143e-11
7.77441e-12
3.64645e-11
7.41306e-12
3.29399e-11
7.0606e-12
2.96462e-11
6.70371e-12
2.65804e-11
6.34497e-12
2.37357e-11
5.99605e-12
2.11035e-11
5.64401e-12
1.86756e-11
5.3077e-12
1.64379e-11
4.99466e-12
1.43664e-11
4.70241e-12
1.24476e-11
4.4504e-12
1.06562e-11
4.24023e-12
8.97025e-12
4.07589e-12
7.36472e-12
3.95432e-12
5.81822e-12
3.8733e-12
4.27732e-12
3.87741e-12
2.47218e-12
4.30854e-12
5.30485e-12
1.98333e-12
-5.54909e-12
3.98821e-12
-1.61019e-12
4.65401e-12
1.12138e-12
4.56197e-12
8.76308e-13
4.30683e-12
-1.42183e-13
4.16968e-12
-8.67677e-13
4.14463e-12
-1.14934e-12
4.16629e-12
-1.13411e-12
4.17242e-12
-9.51284e-13
4.10969e-12
-6.61212e-13
3.93215e-12
-3.0305e-13
3.60886e-12
1.05194e-13
3.10981e-12
5.49007e-13
2.42028e-12
1.0223e-12
1.51613e-12
1.5331e-12
3.83598e-13
2.0672e-12
-9.82309e-13
2.61696e-12
-2.59572e-12
3.19082e-12
-4.46159e-12
3.77383e-12
-6.57457e-12
4.35323e-12
-8.93281e-12
4.92684e-12
-1.15253e-11
5.47678e-12
-1.43364e-11
5.98686e-12
-1.73433e-11
6.4402e-12
-2.05162e-11
6.81725e-12
-2.38176e-11
7.0975e-12
-2.7202e-11
7.2594e-12
-3.06172e-11
7.28098e-12
-3.39995e-11
7.14121e-12
-3.72798e-11
6.82079e-12
-4.0379e-11
6.29879e-12
-4.32133e-11
5.56138e-12
-4.56899e-11
4.59549e-12
-4.77139e-11
3.39064e-12
-4.91893e-11
1.95141e-12
-5.00181e-11
2.79997e-13
-5.0106e-11
-1.62178e-12
-4.93724e-11
-3.72104e-12
-4.77374e-11
-6.00215e-12
-4.51397e-11
-8.41294e-12
-4.1541e-11
-1.09233e-11
-3.69156e-11
-1.34769e-11
-3.12686e-11
-1.60081e-11
-2.46304e-11
-1.84528e-11
-1.70438e-11
-2.07382e-11
-8.60986e-12
-2.28026e-11
5.61811e-13
-2.45807e-11
1.03395e-11
-2.60107e-11
2.05626e-11
-2.7034e-11
3.10542e-11
-2.7616e-11
4.16259e-11
-2.77196e-11
5.20913e-11
-2.73544e-11
6.22576e-11
-2.65117e-11
7.19452e-11
-2.52137e-11
8.09888e-11
-2.3497e-11
8.92412e-11
-2.14096e-11
9.65729e-11
-1.90031e-11
1.02878e-10
-1.6361e-11
1.08119e-10
-1.3548e-11
1.1224e-10
-1.06224e-11
1.15222e-10
-7.65763e-12
1.17085e-10
-4.72949e-12
1.17876e-10
-1.89572e-12
1.17643e-10
7.97538e-13
1.16456e-10
3.32119e-12
1.14416e-10
5.60401e-12
1.1161e-10
7.65457e-12
1.08147e-10
9.44129e-12
1.04125e-10
1.0965e-11
9.96503e-11
1.22216e-11
9.48206e-11
1.32233e-11
8.97364e-11
1.3969e-11
8.44781e-11
1.44916e-11
7.91341e-11
1.47933e-11
7.37761e-11
1.49084e-11
6.84645e-11
1.48549e-11
6.32556e-11
1.4659e-11
5.81955e-11
1.4339e-11
5.33173e-11
1.39281e-11
4.86604e-11
1.34345e-11
4.42376e-11
1.2888e-11
4.00636e-11
1.22997e-11
3.61559e-11
1.16825e-11
3.25117e-11
1.1058e-11
2.91363e-11
1.04362e-11
2.60197e-11
9.8206e-12
2.31641e-11
9.19856e-12
2.05472e-11
8.61015e-12
1.81514e-11
8.03949e-12
1.59662e-11
7.49257e-12
1.39734e-11
6.9843e-12
1.21496e-11
6.52737e-12
1.04818e-11
6.1189e-12
8.94636e-12
5.77197e-12
7.53147e-12
5.4911e-12
6.21611e-12
5.2715e-12
4.97358e-12
5.11323e-12
3.74437e-12
5.10309e-12
2.26799e-12
5.78376e-12
7.57154e-12
1.01672e-12
-6.56681e-12
2.98433e-12
-3.57821e-12
4.42262e-12
-3.16947e-13
5.08654e-12
2.12263e-13
5.34284e-12
-3.99047e-13
5.42055e-12
-9.46529e-13
5.44988e-12
-1.18029e-12
5.45596e-12
-1.14202e-12
5.41078e-12
-9.07838e-13
5.28358e-12
-5.35421e-13
5.04363e-12
-6.41435e-14
4.65557e-12
4.9249e-13
4.09351e-12
1.11041e-12
3.33369e-12
1.78145e-12
2.35581e-12
2.51019e-12
1.14556e-12
3.27659e-12
-3.20419e-13
4.08207e-12
-2.03617e-12
4.90577e-12
-4.01248e-12
5.7494e-12
-6.2562e-12
6.59624e-12
-8.7577e-12
7.42761e-12
-1.15081e-11
8.22647e-12
-1.44925e-11
8.97067e-12
-1.76886e-11
9.63611e-12
-2.10671e-11
1.01961e-11
-2.45912e-11
1.06224e-11
-2.82161e-11
1.08853e-11
-3.1888e-11
1.09538e-11
-3.55444e-11
1.07978e-11
-3.91128e-11
1.03884e-11
-4.25135e-11
9.69781e-12
-4.56581e-11
8.70373e-12
-4.84489e-11
7.38412e-12
-5.07845e-11
5.72452e-12
-5.25622e-11
3.72829e-12
-5.36767e-11
1.39438e-12
-5.40268e-11
-1.27127e-12
-5.35155e-11
-4.23203e-12
-5.20598e-11
-7.45789e-12
-4.95882e-11
-1.0885e-11
-4.60473e-11
-1.44649e-11
-4.14096e-11
-1.81153e-11
-3.56719e-11
-2.17462e-11
-2.88584e-11
-2.52666e-11
-2.10228e-11
-2.8574e-11
-1.2253e-11
-3.15729e-11
-2.67939e-12
-3.41554e-11
7.5552e-12
-3.62467e-11
1.82871e-11
-3.77672e-11
2.93231e-11
-3.86527e-11
4.04583e-11
-3.88548e-11
5.14845e-11
-3.83796e-11
6.21936e-11
-3.72198e-11
7.23883e-11
-3.54078e-11
8.1888e-11
-3.29971e-11
9.05338e-11
-3.00565e-11
9.82022e-11
-2.6673e-11
1.04773e-10
-2.29332e-11
1.10187e-10
-1.8962e-11
1.14402e-10
-1.48381e-11
1.17414e-10
-1.06704e-11
1.19236e-10
-6.55329e-12
1.19922e-10
-2.58192e-12
1.1954e-10
1.17774e-12
1.18196e-10
4.66574e-12
1.15953e-10
7.84887e-12
1.1292e-10
1.06883e-11
1.09212e-10
1.31489e-11
1.04944e-10
1.52346e-11
1.00223e-10
1.69438e-11
9.51569e-11
1.82884e-11
8.98449e-11
1.92845e-11
8.43798e-11
1.9957e-11
7.88426e-11
2.03286e-11
7.33071e-11
2.04439e-11
6.78441e-11
2.03165e-11
6.2503e-11
1.99992e-11
5.73256e-11
1.95141e-11
5.23627e-11
1.88868e-11
4.7634e-11
1.81621e-11
4.31655e-11
1.73574e-11
3.8969e-11
1.6494e-11
3.50482e-11
1.56023e-11
3.14187e-11
1.46898e-11
2.80714e-11
1.37816e-11
2.50053e-11
1.28846e-11
2.21876e-11
1.20206e-11
1.9623e-11
1.11724e-11
1.72926e-11
1.03657e-11
1.51795e-11
9.60911e-12
1.32564e-11
8.90824e-12
1.15081e-11
8.2734e-12
9.91646e-12
7.71114e-12
8.46192e-12
7.22841e-12
7.12862e-12
6.82409e-12
5.89856e-12
6.50199e-12
4.74325e-12
6.26737e-12
3.60884e-12
6.23917e-12
2.21718e-12
7.1757e-12
9.7883e-12
3.70794e-13
-6.93792e-12
1.82442e-12
-5.0314e-12
3.3868e-12
-1.87919e-12
4.50215e-12
-9.03735e-13
5.1691e-12
-1.0676e-12
5.57951e-12
-1.3593e-12
5.83725e-12
-1.44066e-12
5.99458e-12
-1.30176e-12
6.05493e-12
-9.70092e-13
6.00342e-12
-4.85271e-13
5.81363e-12
1.24611e-13
5.46616e-12
8.38996e-13
4.94041e-12
1.63507e-12
4.20282e-12
2.51782e-12
3.24115e-12
3.47065e-12
2.03387e-12
4.48285e-12
5.79402e-13
5.53579e-12
-1.15143e-12
6.63607e-12
-3.15828e-12
7.75573e-12
-5.4406e-12
8.87787e-12
-8.00111e-12
9.98719e-12
-1.08317e-11
1.1056e-11
-1.39188e-11
1.20569e-11
-1.72423e-11
1.29593e-11
-2.07747e-11
1.37289e-11
-2.44805e-11
1.43291e-11
-2.83152e-11
1.47211e-11
-3.22256e-11
1.48649e-11
-3.6148e-11
1.47204e-11
-4.00081e-11
1.42478e-11
-4.37239e-11
1.34123e-11
-4.71992e-11
1.21775e-11
-5.0333e-11
1.05168e-11
-5.30165e-11
8.40746e-12
-5.51353e-11
5.84705e-12
-5.65767e-11
2.83617e-12
-5.72307e-11
-6.16814e-13
-5.69825e-11
-4.4801e-12
-5.57366e-11
-8.70405e-12
-5.34073e-11
-1.32148e-11
-4.99345e-11
-1.79385e-11
-4.52777e-11
-2.27728e-11
-3.94237e-11
-2.76009e-11
-3.23962e-11
-3.22947e-11
-2.42469e-11
-3.67239e-11
-1.50726e-11
-4.07479e-11
-4.99386e-12
-4.4235e-11
5.82677e-12
-4.70682e-11
1.71973e-11
-4.91384e-11
2.89038e-11
-5.03593e-11
4.07431e-11
-5.06938e-11
5.2461e-11
-5.00971e-11
6.38309e-11
-4.85896e-11
7.46341e-11
-4.62115e-11
8.46724e-11
-4.30367e-11
9.3771e-11
-3.91565e-11
1.01782e-10
-3.46847e-11
1.08627e-10
-2.97785e-11
1.14207e-10
-2.45419e-11
1.18469e-10
-1.91003e-11
1.21446e-10
-1.36487e-11
1.23157e-10
-8.26674e-12
1.23657e-10
-3.0832e-12
1.23026e-10
1.80845e-12
1.21358e-10
6.33467e-12
1.18766e-10
1.04412e-11
1.1538e-10
1.40774e-11
1.113e-10
1.7229e-11
1.06663e-10
1.98713e-11
1.01584e-10
2.20279e-11
9.61748e-11
2.36964e-11
9.05417e-11
2.49181e-11
8.47826e-11
2.57168e-11
7.89794e-11
2.6132e-11
7.3218e-11
2.62047e-11
6.75431e-11
2.59892e-11
6.20327e-11
2.55083e-11
5.67208e-11
2.48242e-11
5.16362e-11
2.397e-11
4.6821e-11
2.29766e-11
4.22914e-11
2.1887e-11
3.80535e-11
2.07284e-11
3.41173e-11
1.95333e-11
3.04854e-11
1.8326e-11
2.71526e-11
1.71204e-11
2.40955e-11
1.59365e-11
2.13225e-11
1.47927e-11
1.88091e-11
1.3689e-11
1.65331e-11
1.26434e-11
1.44774e-11
1.16643e-11
1.26197e-11
1.07669e-11
1.09425e-11
9.95263e-12
9.42286e-12
9.23013e-12
8.04436e-12
8.60505e-12
6.79109e-12
8.07833e-12
5.64072e-12
7.65082e-12
4.56885e-12
7.33802e-12
3.51115e-12
7.2956e-12
2.18596e-12
8.5018e-12
1.19725e-11
1.07428e-13
-7.04502e-12
1.19268e-12
-6.11603e-12
2.67145e-12
-3.35822e-12
3.9444e-12
-2.17816e-12
4.89002e-12
-2.01576e-12
5.56428e-12
-2.03662e-12
6.05351e-12
-1.9328e-12
6.39281e-12
-1.64338e-12
6.59843e-12
-1.17734e-12
6.66446e-12
-5.52513e-13
6.57741e-12
2.10483e-13
6.31453e-12
1.10046e-12
5.85513e-12
2.09278e-12
5.18268e-12
3.18855e-12
4.28117e-12
4.37069e-12
3.12422e-12
5.63882e-12
1.69032e-12
6.96915e-12
-2.66906e-14
8.35275e-12
-2.03013e-12
9.75871e-12
-4.33349e-12
1.11804e-11
-6.94136e-12
1.25939e-11
-9.84513e-12
1.39585e-11
-1.30359e-11
1.52467e-11
-1.64965e-11
1.64194e-11
-2.02022e-11
1.74348e-11
-2.41196e-11
1.82472e-11
-2.82055e-11
1.88079e-11
-3.24066e-11
1.90667e-11
-3.66581e-11
1.8972e-11
-4.08839e-11
1.84733e-11
-4.49954e-11
1.75233e-11
-4.88935e-11
1.6075e-11
-5.24694e-11
1.40923e-11
-5.56046e-11
1.15426e-11
-5.81725e-11
8.4152e-12
-6.00449e-11
4.70893e-12
-6.11085e-11
4.46996e-13
-6.12101e-11
-4.37837e-12
-6.02515e-11
-9.66303e-12
-5.81278e-11
-1.53392e-11
-5.47604e-11
-2.13067e-11
-5.00948e-11
-2.74393e-11
-4.41054e-11
-3.3591e-11
-3.68102e-11
-3.95904e-11
-2.82566e-11
-4.52778e-11
-1.85476e-11
-5.0457e-11
-7.81715e-12
-5.49656e-11
3.75929e-12
-5.8645e-11
1.59688e-11
-6.13485e-11
2.85744e-11
-6.29655e-11
4.13165e-11
-6.34367e-11
5.39357e-11
-6.27172e-11
6.61666e-11
-6.08217e-11
7.77654e-11
-5.78118e-11
8.85039e-11
-5.37767e-11
9.81885e-11
-4.88422e-11
1.06668e-10
-4.31644e-11
1.13812e-10
-3.69221e-11
1.19541e-10
-3.02714e-11
1.23886e-10
-2.34458e-11
1.26793e-10
-1.65572e-11
1.28316e-10
-9.79154e-12
1.2853e-10
-3.30045e-12
1.27542e-10
2.79772e-12
1.25459e-10
8.42091e-12
1.22406e-10
1.34942e-11
1.18528e-10
1.79584e-11
1.13961e-10
2.17979e-11
1.0883e-10
2.50016e-11
1.03276e-10
2.75833e-11
9.74171e-11
2.95565e-11
9.13673e-11
3.09687e-11
8.5225e-11
3.18574e-11
7.90797e-11
3.22783e-11
7.30103e-11
3.22759e-11
6.7092e-11
3.19076e-11
6.13601e-11
3.12394e-11
5.58731e-11
3.03093e-11
5.06621e-11
2.91809e-11
4.57501e-11
2.7886e-11
4.11468e-11
2.64864e-11
3.68674e-11
2.50101e-11
3.29142e-11
2.3488e-11
2.92835e-11
2.19529e-11
2.59686e-11
2.04344e-11
2.29542e-11
1.89524e-11
2.02363e-11
1.7514e-11
1.7776e-11
1.6146e-11
1.55625e-11
1.48568e-11
1.35881e-11
1.36379e-11
1.1813e-11
1.25375e-11
1.02242e-11
1.15409e-11
8.79965e-12
1.06559e-11
7.51819e-12
9.88422e-12
6.36449e-12
9.23257e-12
5.314e-12
8.69939e-12
4.34424e-12
8.30623e-12
3.38308e-12
8.25411e-12
2.14276e-12
9.74134e-12
1.41146e-11
9.29067e-14
-7.13735e-12
1.02052e-12
-7.04358e-12
2.38841e-12
-4.72719e-12
3.70587e-12
-3.49789e-12
4.80085e-12
-3.11375e-12
5.6704e-12
-2.90921e-12
6.35048e-12
-2.61536e-12
6.86319e-12
-2.15783e-12
7.22585e-12
-1.54125e-12
7.43099e-12
-7.58862e-13
7.46547e-12
1.74428e-13
7.31493e-12
1.249e-12
6.95812e-12
2.44738e-12
6.37341e-12
3.77125e-12
5.53936e-12
5.20328e-12
4.44686e-12
6.73051e-12
3.06723e-12
8.34843e-12
1.39248e-12
1.00272e-11
-6.08933e-13
1.17596e-11
-2.93388e-12
1.35044e-11
-5.58751e-12
1.52462e-11
-8.56963e-12
1.69393e-11
-1.18779e-11
1.8554e-11
-1.54981e-11
2.00391e-11
-1.94087e-11
2.13454e-11
-2.35789e-11
2.24179e-11
-2.79678e-11
2.31974e-11
-3.25224e-11
2.36219e-11
-3.71777e-11
2.36277e-11
-4.18549e-11
2.31507e-11
-4.64607e-11
2.2129e-11
-5.08905e-11
2.05046e-11
-5.50247e-11
1.82263e-11
-5.87359e-11
1.52536e-11
-6.18819e-11
1.15612e-11
-6.43144e-11
7.14158e-12
-6.58981e-11
2.03089e-12
-6.6468e-11
-3.80841e-12
-6.58968e-11
-1.02347e-11
-6.40572e-11
-1.71796e-11
-6.08463e-11
-2.45186e-11
-5.61919e-11
-3.20947e-11
-5.00547e-11
-3.97287e-11
-4.24346e-11
-4.72105e-11
-3.33883e-11
-5.43237e-11
-2.30083e-11
-6.08365e-11
-1.14482e-11
-6.65256e-11
1.08349e-12
-7.11773e-11
1.43688e-11
-7.46351e-11
2.81148e-11
-7.67132e-11
4.20287e-11
-7.73524e-11
5.58083e-11
-7.64984e-11
6.91455e-11
-7.41604e-11
8.17592e-11
-7.04271e-11
9.33896e-11
-6.54083e-11
1.03812e-10
-5.92655e-11
1.12857e-10
-5.22104e-11
1.20387e-10
-4.4452e-11
1.26368e-10
-3.62525e-11
1.30728e-10
-2.78085e-11
1.33509e-10
-1.93398e-11
1.34772e-10
-1.10548e-11
1.34608e-10
-3.13699e-12
1.33145e-10
4.26204e-12
1.30516e-10
1.10534e-11
1.26875e-10
1.71376e-11
1.22373e-10
2.24601e-11
1.17171e-10
2.69999e-11
1.11421e-10
3.07536e-11
1.05269e-10
3.37348e-11
9.88448e-11
3.59805e-11
9.22749e-11
3.75407e-11
8.56617e-11
3.84726e-11
7.91026e-11
3.88398e-11
7.26709e-11
3.8708e-11
6.64367e-11
3.81428e-11
6.04548e-11
3.72217e-11
5.47572e-11
3.60024e-11
4.93902e-11
3.4547e-11
4.43597e-11
3.29208e-11
3.96777e-11
3.11652e-11
3.53517e-11
2.9329e-11
3.13846e-11
2.74553e-11
2.77682e-11
2.55735e-11
2.44851e-11
2.37164e-11
2.15241e-11
2.19084e-11
1.88647e-11
2.01761e-11
1.64889e-11
1.85203e-11
1.43781e-11
1.6969e-11
1.24901e-11
1.55288e-11
1.08199e-11
1.42081e-11
9.34119e-12
1.30195e-11
8.02987e-12
1.19638e-11
6.8683e-12
1.10466e-11
5.83243e-12
1.02675e-11
4.90259e-12
9.62858e-12
4.05259e-12
9.1562e-12
3.21542e-12
9.09163e-12
2.07973e-12
1.08747e-11
1.61949e-11
1.76297e-13
-7.31329e-12
1.07974e-12
-7.94803e-12
2.39483e-12
-6.04422e-12
3.73945e-12
-4.84522e-12
4.9392e-12
-4.31636e-12
5.95651e-12
-3.92891e-12
6.80201e-12
-3.46252e-12
7.48492e-12
-2.84187e-12
8.006e-12
-2.06341e-12
8.36081e-12
-1.11516e-12
8.53561e-12
-2.45153e-15
8.51233e-12
1.26981e-12
8.27446e-12
2.6828e-12
7.80021e-12
4.24353e-12
7.06796e-12
5.93426e-12
6.05397e-12
7.74387e-12
4.73895e-12
9.66317e-12
3.10001e-12
1.16659e-11
1.12995e-12
1.37291e-11
-1.20804e-12
1.58415e-11
-3.90227e-12
1.79394e-11
-6.97146e-12
2.00074e-11
-1.0411e-11
2.19926e-11
-1.42122e-11
2.38396e-11
-1.83586e-11
2.54915e-11
-2.2823e-11
2.68824e-11
-2.75674e-11
2.79423e-11
-3.25409e-11
2.8596e-11
-3.7678e-11
2.87656e-11
-4.28982e-11
2.83714e-11
-4.81042e-11
2.73351e-11
-5.31853e-11
2.55853e-11
-5.80085e-11
2.30489e-11
-6.24322e-11
1.96768e-11
-6.63001e-11
1.54287e-11
-6.94456e-11
1.02871e-11
-7.16816e-11
4.26693e-12
-7.28625e-11
-2.62761e-12
-7.28009e-11
-1.02968e-11
-7.13457e-11
-1.86358e-11
-6.83653e-11
-2.75001e-11
-6.37575e-11
-3.67032e-11
-5.74639e-11
-4.60225e-11
-4.94715e-11
-5.52026e-11
-3.98263e-11
-6.39683e-11
-2.86299e-11
-7.20326e-11
-1.60497e-11
-7.91062e-11
-2.30526e-12
-8.49229e-11
1.23074e-11
-8.92494e-11
2.74878e-11
-9.18952e-11
4.28775e-11
-9.27435e-11
5.81121e-11
-9.17341e-11
7.28449e-11
-8.88942e-11
8.67263e-11
-8.43099e-11
9.94526e-11
-7.8136e-11
1.10804e-10
-7.06177e-11
1.20525e-10
-6.19327e-11
1.28545e-10
-5.24735e-11
1.34748e-10
-4.24558e-11
1.39134e-10
-3.21942e-11
1.41732e-10
-2.194e-11
1.42643e-10
-1.19659e-11
1.4198e-10
-2.47049e-12
1.39908e-10
6.33507e-12
1.36591e-10
1.43702e-11
1.3219e-10
2.15401e-11
1.26916e-10
2.77359e-11
1.20927e-10
3.29867e-11
1.14417e-10
3.72649e-11
1.07533e-10
4.06206e-11
1.00427e-10
4.30905e-11
9.32273e-11
4.47401e-11
8.60508e-11
4.56499e-11
7.89968e-11
4.58975e-11
7.21344e-11
4.55694e-11
6.55368e-11
4.4738e-11
5.92572e-11
4.35036e-11
5.33249e-11
4.19354e-11
4.77731e-11
4.00935e-11
4.26128e-11
3.80769e-11
3.7851e-11
3.5928e-11
3.34858e-11
3.36962e-11
2.95127e-11
3.14274e-11
2.59155e-11
2.91718e-11
2.26822e-11
2.69517e-11
1.97887e-11
2.48004e-11
1.72208e-11
2.27445e-11
1.49412e-11
2.07996e-11
1.29317e-11
1.898e-11
1.1167e-11
1.72929e-11
9.63277e-12
1.57417e-11
8.28676e-12
1.43674e-11
7.11304e-12
1.3138e-11
6.09095e-12
1.20698e-11
5.19369e-12
1.11629e-11
4.40266e-12
1.04173e-11
3.69486e-12
9.86504e-12
3.00454e-12
9.78303e-12
1.99885e-12
1.18792e-11
1.81923e-11
2.8816e-13
-7.60172e-12
1.24601e-12
-8.90806e-12
2.57545e-12
-7.37624e-12
3.96783e-12
-6.24029e-12
5.26303e-12
-5.61381e-12
6.41643e-12
-5.08382e-12
7.41749e-12
-4.4645e-12
8.26843e-12
-3.69361e-12
8.95358e-12
-2.74975e-12
9.47042e-12
-1.63387e-12
9.79809e-12
-3.32561e-13
9.92939e-12
1.13591e-12
9.83297e-12
2.77692e-12
9.48951e-12
4.58532e-12
8.8747e-12
6.54807e-12
7.96214e-12
8.65594e-12
6.73337e-12
1.08917e-11
5.15743e-12
1.32417e-11
3.21092e-12
1.56754e-11
8.84521e-13
1.81675e-11
-1.85383e-12
2.06771e-11
-5.00749e-12
2.31601e-11
-8.58486e-12
2.55689e-11
-1.25846e-11
2.78384e-11
-1.6994e-11
2.99003e-11
-2.17915e-11
3.16798e-11
-2.6943e-11
3.30944e-11
-3.24009e-11
3.40548e-11
-3.8101e-11
3.44665e-11
-4.39614e-11
3.42322e-11
-4.98815e-11
3.3255e-11
-5.57386e-11
3.14416e-11
-6.13949e-11
2.87042e-11
-6.66882e-11
2.49693e-11
-7.14414e-11
2.01814e-11
-7.54607e-11
1.43063e-11
-7.85456e-11
7.35167e-12
-8.04938e-11
-6.79686e-13
-8.1091e-11
-9.70042e-12
-8.01481e-11
-1.95798e-11
-7.74944e-11
-3.0155e-11
-7.29931e-11
-4.12053e-11
-6.65542e-11
-5.24619e-11
-5.81438e-11
-6.36131e-11
-4.77967e-11
-7.43154e-11
-3.56171e-11
-8.42125e-11
-2.17919e-11
-9.29322e-11
-6.58036e-12
-1.00136e-10
9.69653e-12
-1.05527e-10
2.66568e-11
-1.08856e-10
4.38792e-11
-1.09966e-10
6.09338e-11
-1.08789e-10
7.73814e-11
-1.05342e-10
9.28338e-11
-9.97636e-11
1.06912e-10
-9.22163e-11
1.19316e-10
-8.30226e-11
1.29918e-10
-7.25345e-11
1.38472e-10
-6.10284e-11
1.44923e-10
-4.89065e-11
1.49293e-10
-3.65637e-11
1.51641e-10
-2.42876e-11
1.5207e-10
-1.23962e-11
1.50772e-10
-1.17104e-12
1.4792e-10
9.18981e-12
1.43717e-10
1.85731e-11
1.38403e-10
2.68525e-11
1.32166e-10
3.39765e-11
1.25232e-10
3.99228e-11
1.17791e-10
4.47089e-11
1.10024e-10
4.83855e-11
1.02106e-10
5.10121e-11
9.4161e-11
5.2686e-11
8.63249e-11
5.34853e-11
7.86894e-11
5.35338e-11
7.13399e-11
5.29185e-11
6.43325e-11
5.17431e-11
5.7712e-11
5.01216e-11
5.15357e-11
4.81125e-11
4.57756e-11
4.58561e-11
4.04793e-11
4.33723e-11
3.56345e-11
4.0771e-11
3.12382e-11
3.80948e-11
2.72655e-11
3.53984e-11
2.3707e-11
3.2726e-11
2.05357e-11
3.01185e-11
1.77361e-11
2.76027e-11
1.52718e-11
2.52116e-11
1.31199e-11
2.29529e-11
1.12506e-11
2.08483e-11
9.63603e-12
1.89079e-11
8.24307e-12
1.71395e-11
7.05572e-12
1.55533e-11
6.0431e-12
1.41504e-11
5.18159e-12
1.29307e-11
4.44665e-12
1.1897e-11
3.81412e-12
1.10461e-11
3.26487e-12
1.04159e-11
2.73102e-12
1.03172e-11
1.89264e-12
1.27186e-11
2.00846e-11
4.03272e-13
-8.006e-12
1.46088e-12
-9.96874e-12
2.85963e-12
-8.77777e-12
4.33216e-12
-7.7151e-12
5.73825e-12
-7.02139e-12
7.03001e-12
-6.37636e-12
8.19241e-12
-5.62741e-12
9.20987e-12
-4.71188e-12
1.0072e-11
-3.61337e-12
1.07627e-11
-2.32659e-12
1.12705e-11
-8.42802e-13
1.15687e-11
8.35339e-13
1.16346e-11
2.70918e-12
1.14488e-11
4.76984e-12
1.09789e-11
7.01728e-12
1.01964e-11
9.43804e-12
9.07179e-12
1.20163e-11
7.58119e-12
1.47324e-11
5.68785e-12
1.75688e-11
3.37093e-12
2.04843e-11
6.04873e-13
2.34427e-11
-2.63199e-12
2.63962e-11
-6.3456e-12
2.92815e-11
-1.05513e-11
3.20431e-11
-1.5244e-11
3.45924e-11
-2.04101e-11
3.68461e-11
-2.60178e-11
3.87028e-11
-3.20252e-11
4.0063e-11
-3.83705e-11
4.08124e-11
-4.49722e-11
4.08338e-11
-5.17258e-11
4.00079e-11
-5.85024e-11
3.82171e-11
-6.51499e-11
3.53507e-11
-7.14888e-11
3.13074e-11
-7.73191e-11
2.60113e-11
-8.24202e-11
1.94071e-11
-8.65428e-11
1.1474e-11
-8.94629e-11
2.2398e-12
-9.0912e-11
-8.25243e-12
-9.06484e-11
-1.98448e-11
-8.84534e-11
-3.23514e-11
-8.41452e-11
-4.55149e-11
-7.75907e-11
-5.90175e-11
-6.87246e-11
-7.248e-11
-5.75673e-11
-8.54735e-11
-4.42248e-11
-9.75556e-11
-2.88956e-11
-1.08262e-10
-1.18884e-11
-1.17143e-10
6.41904e-12
-1.23834e-10
2.55692e-11
-1.28005e-10
4.50491e-11
-1.29445e-10
6.4327e-11
-1.28067e-10
8.28981e-11
-1.23914e-10
1.00249e-10
-1.17115e-10
1.15998e-10
-1.07966e-10
1.29779e-10
-9.68032e-11
1.41305e-10
-8.40592e-11
1.50453e-10
-7.01755e-11
1.5717e-10
-5.56233e-11
1.61462e-10
-4.08568e-11
1.6341e-10
-2.62348e-11
1.63235e-10
-1.22209e-11
1.61121e-10
9.41761e-13
1.57273e-10
1.30403e-11
1.51996e-10
2.38535e-11
1.45525e-10
3.33253e-11
1.38125e-10
4.1377e-11
1.30032e-10
4.80151e-11
1.21491e-10
5.32548e-11
1.12687e-10
5.71886e-11
1.03806e-10
5.98934e-11
9.50049e-11
6.14861e-11
8.64035e-11
6.20863e-11
7.81087e-11
6.18293e-11
7.01991e-11
6.08288e-11
6.27347e-11
5.92098e-11
5.57657e-11
5.70918e-11
4.92732e-11
5.46033e-11
4.33286e-11
5.17991e-11
3.78937e-11
4.8804e-11
3.29736e-11
4.56837e-11
2.85536e-11
4.25096e-11
2.46056e-11
3.93438e-11
2.11128e-11
3.62243e-11
1.80326e-11
3.31971e-11
1.53461e-11
3.029e-11
1.30158e-11
2.7538e-11
1.10176e-11
2.49539e-11
9.31144e-12
2.25574e-11
7.86804e-12
2.0351e-11
6.65554e-12
1.83535e-11
5.64849e-12
1.65605e-11
4.82094e-12
1.49791e-11
4.14122e-12
1.36089e-11
3.59071e-12
1.24478e-11
3.14277e-12
1.14937e-11
2.77296e-12
1.07853e-11
2.41241e-12
1.06798e-11
1.75604e-12
1.3375e-11
2.18413e-11
5.14631e-13
-8.52227e-12
1.70007e-12
-1.11576e-11
3.20727e-12
-1.02876e-11
4.79363e-12
-9.30321e-12
6.33358e-12
-8.56224e-12
7.78011e-12
-7.82329e-12
9.10866e-12
-6.95643e-12
1.03103e-11
-5.91446e-12
1.13622e-11
-4.66684e-12
1.22445e-11
-3.21092e-12
1.29469e-11
-1.54712e-12
1.34401e-11
3.40484e-13
1.36963e-11
2.45169e-12
1.36925e-11
4.77277e-12
1.3395e-11
7.31429e-12
1.27712e-11
1.00617e-11
1.17855e-11
1.30022e-11
1.04007e-11
1.61176e-11
8.58928e-12
1.93806e-11
6.31104e-12
2.27628e-11
3.53067e-12
2.62228e-11
2.30413e-13
2.96958e-11
-3.62538e-12
3.31364e-11
-8.03804e-12
3.64551e-11
-1.30305e-11
3.95847e-11
-1.85888e-11
4.24046e-11
-2.46983e-11
4.48128e-11
-3.13175e-11
4.66826e-11
-3.83916e-11
4.78864e-11
-4.58399e-11
4.82816e-11
-5.35558e-11
4.77229e-11
-6.14039e-11
4.60643e-11
-6.92185e-11
4.31644e-11
-7.68048e-11
3.88931e-11
-8.39334e-11
3.31396e-11
-9.03481e-11
2.58215e-11
-9.57675e-11
1.68928e-11
-9.98998e-11
6.37125e-12
-1.02433e-10
-5.72077e-12
-1.03061e-10
-1.92183e-11
-1.01507e-10
-3.39075e-11
-9.75193e-11
-4.95048e-11
-9.09091e-11
-6.56293e-11
-8.15721e-11
-8.18182e-11
-6.94938e-11
-9.75524e-11
-5.47814e-11
-1.12268e-10
-3.76569e-11
-1.25386e-10
-1.84629e-11
-1.36337e-10
2.31727e-12
-1.44614e-10
2.4157e-11
-1.49844e-10
4.6416e-11
-1.51703e-10
6.84468e-11
-1.50097e-10
8.96092e-11
-1.45075e-10
1.09326e-10
-1.3683e-10
1.2703e-10
-1.25669e-10
1.42372e-10
-1.12144e-10
1.55036e-10
-9.67216e-11
1.64864e-10
-8.00019e-11
1.71803e-10
-6.25624e-11
1.75929e-10
-4.49841e-11
1.77351e-10
-2.76577e-11
1.76339e-10
-1.12056e-11
1.73142e-10
4.14145e-12
1.68086e-10
1.80974e-11
1.61453e-10
3.04853e-11
1.53583e-10
4.11984e-11
1.44762e-10
5.01995e-11
1.35314e-10
5.74623e-11
1.25451e-10
6.31155e-11
1.15438e-10
6.72017e-11
1.05446e-10
6.98886e-11
9.56539e-11
7.12831e-11
8.61877e-11
7.1555e-11
7.71492e-11
7.08673e-11
6.86233e-11
6.93535e-11
6.06539e-11
6.71792e-11
5.32817e-11
6.44644e-11
4.65261e-11
6.13555e-11
4.03577e-11
5.79604e-11
3.47945e-11
5.4364e-11
2.98192e-11
5.06621e-11
2.53965e-11
4.69378e-11
2.15064e-11
4.3228e-11
1.80981e-11
3.96311e-11
1.51387e-11
3.61504e-11
1.26035e-11
3.28318e-11
1.04437e-11
2.96984e-11
8.62427e-12
2.67706e-11
7.11341e-12
2.40661e-11
5.86815e-12
2.15958e-11
4.86053e-12
1.93585e-11
4.06196e-12
1.73606e-11
3.44198e-12
1.56018e-11
2.97443e-12
1.40764e-11
2.62761e-12
1.27919e-11
2.38214e-12
1.17412e-11
2.21023e-12
1.09557e-11
2.05496e-12
1.08372e-11
1.60198e-12
1.38281e-11
2.34421e-11
6.20111e-13
-9.14436e-12
1.95125e-12
-1.24921e-11
3.60325e-12
-1.19418e-11
5.33154e-12
-1.10328e-11
7.02713e-12
-1.02584e-11
8.64544e-12
-9.44197e-12
1.01618e-11
-8.47344e-12
1.15553e-11
-7.30897e-12
1.2814e-11
-5.92692e-12
1.39177e-11
-4.31602e-12
1.48347e-11
-2.46544e-12
1.55436e-11
-3.69315e-13
1.60227e-11
1.97195e-12
1.62312e-11
4.56378e-12
1.61385e-11
7.40682e-12
1.57059e-11
1.04943e-11
1.48931e-11
1.38154e-11
1.36572e-11
1.73539e-11
1.19529e-11
2.10852e-11
9.7437e-12
2.49721e-11
6.99323e-12
2.89732e-11
3.64045e-12
3.30483e-11
-3.3217e-13
3.71089e-11
-4.96375e-12
4.10868e-11
-1.02542e-11
4.48753e-11
-1.62292e-11
4.83798e-11
-2.28743e-11
5.14579e-11
-3.01647e-11
5.39728e-11
-3.80489e-11
5.57701e-11
-4.64511e-11
5.66832e-11
-5.52649e-11
5.65362e-11
-6.43502e-11
5.51491e-11
-7.35299e-11
5.23439e-11
-8.25878e-11
4.79508e-11
-9.12679e-11
4.18196e-11
-9.92758e-11
3.3829e-11
-1.0628e-10
2.38963e-11
-1.11931e-10
1.2021e-11
-1.15853e-10
-1.80036e-12
-1.1765e-10
-1.74234e-11
-1.16969e-10
-3.45909e-11
-1.13482e-10
-5.29945e-11
-1.06921e-10
-7.21911e-11
-9.71182e-11
-9.16218e-11
-8.40191e-11
-1.10652e-10
-6.77109e-11
-1.28577e-10
-4.84441e-11
-1.44654e-10
-2.66212e-11
-1.5816e-10
-2.79047e-12
-1.68445e-10
2.23314e-11
-1.74965e-10
4.80027e-11
-1.77373e-10
7.34033e-11
-1.75496e-10
9.77249e-11
-1.69396e-10
1.20225e-10
-1.59329e-10
1.40383e-10
-1.45825e-10
1.57607e-10
-1.29368e-10
1.71547e-10
-1.10661e-10
1.82126e-10
-9.05813e-11
1.89239e-10
-6.96743e-11
1.93045e-10
-4.87881e-11
1.93723e-10
-2.83356e-11
1.9161e-10
-9.09167e-12
1.87055e-10
8.69917e-12
1.80445e-10
2.47109e-11
1.72155e-10
3.87723e-11
1.62574e-10
5.07765e-11
1.52078e-10
6.06928e-11
1.40982e-10
6.85625e-11
1.296e-10
7.44996e-11
1.18166e-10
7.86387e-11
1.06901e-10
8.11523e-11
9.59842e-11
8.22034e-11
8.55455e-11
8.19964e-11
7.56921e-11
8.07209e-11
6.64863e-11
7.85588e-11
5.79857e-11
7.56772e-11
5.01966e-11
7.22521e-11
4.31331e-11
6.84233e-11
3.67877e-11
6.43105e-11
3.11252e-11
6.00273e-11
2.61195e-11
5.56644e-11
2.1745e-11
5.13128e-11
1.79132e-11
4.70564e-11
1.46281e-11
4.29174e-11
1.18356e-11
3.89359e-11
9.48248e-12
3.51822e-11
7.52821e-12
3.16522e-11
5.92495e-12
2.83708e-11
4.63623e-12
2.53547e-11
3.63032e-12
2.2604e-11
2.859e-12
2.01278e-11
2.29884e-12
1.7921e-11
1.9192e-12
1.5983e-11
1.68314e-12