/*--------------------------------*- C++ -*----------------------------------*\
| =========                 |                                                 |
| \\      /  F ield         | OpenFOAM: The Open Source CFD Toolbox           |
|  \\    /   O peration     | Version:  2312                                  |
|   \\  /    A nd           | Website:  www.openfoam.com                      |
|    \\/     M anipulation  |                                                 |
\*---------------------------------------------------------------------------*/
FoamFile
{
    version     2.0;
    format      ascii;
    arch        "LSB;label=32;scalar=64";
    class       volScalarField;
    location    "0.25";
    object      p;
}
// * * * * * * * * * * * * * * * * * * * * * * * * * * * * * * * * * * * * * //

dimensions      [1 -1 -2 0 0 0 0];

internalField   nonuniform List<scalar> 
10000
(
0
-0.000188666
-0.000322002
-0.00041969
-0.000499778
-0.00057107
-0.000637706
-0.000701859
-0.000764782
-0.000827018
-0.000888873
-0.000950375
-0.00101147
-0.00107205
-0.00113183
-0.00119045
-0.00124743
-0.00130217
-0.00135407
-0.00140252
-0.00144694
-0.00148665
-0.00152092
-0.00154898
-0.00157013
-0.0015838
-0.00158957
-0.00158708
-0.00157596
-0.00155588
-0.00152665
-0.00148836
-0.00144137
-0.00138617
-0.00132293
-0.00125261
-0.00117584
-0.00109359
-0.00100726
-0.000918481
-0.000828662
-0.000740205
-0.000655301
-0.000576118
-0.000505042
-0.000444517
-0.000396869
-0.000364197
-0.000348635
-0.000352199
-0.000376327
-0.000422209
-0.000490978
-0.000583132
-0.000698783
-0.000837857
-0.000999847
-0.00118397
-0.00138894
-0.00161328
-0.00185538
-0.00211325
-0.00238546
-0.00267007
-0.00296482
-0.00326758
-0.00357599
-0.003888
-0.00420174
-0.00451606
-0.00482883
-0.00513899
-0.00544457
-0.00574409
-0.00603672
-0.00632157
-0.00659786
-0.00686542
-0.00712314
-0.00737028
-0.00760728
-0.00783238
-0.00804654
-0.00824836
-0.00843821
-0.00861578
-0.0087813
-0.00893463
-0.00907584
-0.0092053
-0.00932246
-0.00942731
-0.00951972
-0.00960023
-0.0096687
-0.00972474
-0.00976828
-0.0097996
-0.00981943
-0.00982777
-0.000185647
-0.000266752
-0.000356053
-0.000436555
-0.000509439
-0.000576958
-0.000641433
-0.000704308
-0.000766431
-0.000828199
-0.000889767
-0.000951124
-0.00101224
-0.00107297
-0.00113302
-0.001192
-0.00124936
-0.00130449
-0.00135684
-0.00140581
-0.0014508
-0.00149108
-0.00152585
-0.00155434
-0.0015759
-0.00159002
-0.00159628
-0.00159425
-0.0015835
-0.00156366
-0.00153459
-0.00149641
-0.00144943
-0.00139405
-0.00133097
-0.00126041
-0.00118312
-0.00110017
-0.00101292
-0.000923016
-0.000832117
-0.000742322
-0.000655914
-0.000575264
-0.000502656
-0.000440486
-0.000391206
-0.000357018
-0.00033995
-0.000342102
-0.000365062
-0.000409871
-0.000477654
-0.000569103
-0.000684324
-0.000823193
-0.000985129
-0.00116941
-0.00137468
-0.00159934
-0.00184202
-0.00210071
-0.00237394
-0.00265972
-0.00295569
-0.00325956
-0.00356902
-0.00388225
-0.00419712
-0.0045127
-0.00482668
-0.00513776
-0.00544429
-0.00574484
-0.00603837
-0.00632428
-0.00660135
-0.00686939
-0.00712789
-0.00737566
-0.00761312
-0.00783892
-0.0080533
-0.00825561
-0.00844593
-0.00862362
-0.00878933
-0.00894295
-0.00908429
-0.00921386
-0.00933106
-0.00943611
-0.00952892
-0.00960941
-0.00967759
-0.00973344
-0.00977734
-0.00980936
-0.00982942
-0.0098374
-0.000301711
-0.000341418
-0.000399769
-0.000462379
-0.000525007
-0.000586628
-0.000647543
-0.000708217
-0.000768982
-0.000829978
-0.000891207
-0.000952603
-0.00101399
-0.00107514
-0.00113579
-0.00119547
-0.00125366
-0.00130978
-0.00136325
-0.00141342
-0.00145958
-0.00150097
-0.0015368
-0.00156633
-0.00158896
-0.00160416
-0.00161146
-0.00161033
-0.00160029
-0.00158099
-0.00155229
-0.00151431
-0.00146734
-0.0014117
-0.00134778
-0.00127598
-0.001197
-0.00111191
-0.00102209
-0.00092922
-0.000835178
-0.000742015
-0.000652001
-0.000567599
-0.000491193
-0.000425156
-0.000372139
-0.000334311
-0.000314104
-0.000313244
-0.000333619
-0.000376417
-0.000442688
-0.000533193
-0.000648048
-0.000787092
-0.000949639
-0.00113489
-0.00134165
-0.00156816
-0.0018131
-0.0020745
-0.00235062
-0.00263943
-0.00293848
-0.00324543
-0.00355775
-0.00387385
-0.00419156
-0.00450968
-0.00482632
-0.00513987
-0.0054485
-0.00575137
-0.00604689
-0.00633435
-0.00661296
-0.00688226
-0.00714176
-0.00739115
-0.00762899
-0.00785575
-0.00807098
-0.00827388
-0.00846477
-0.00864273
-0.00880841
-0.00896221
-0.00910389
-0.0092336
-0.00935096
-0.00945622
-0.00954902
-0.00962917
-0.00969743
-0.00975322
-0.00979683
-0.009829
-0.00984965
-0.00985845
-0.0003753
-0.000399024
-0.000439286
-0.000488179
-0.000541581
-0.000597125
-0.000654069
-0.000712191
-0.00077139
-0.000831556
-0.000892532
-0.000954113
-0.00101604
-0.001078
-0.00113964
-0.00120053
-0.00126015
-0.00131791
-0.00137314
-0.00142512
-0.00147306
-0.00151618
-0.00155374
-0.00158503
-0.00160944
-0.00162638
-0.00163527
-0.00163552
-0.00162659
-0.00160812
-0.00157996
-0.00154215
-0.0014949
-0.0014384
-0.00137291
-0.00129883
-0.00121687
-0.00112813
-0.00103405
-0.000936382
-0.000837111
-0.000738349
-0.000642348
-0.000551663
-0.000468945
-0.000396697
-0.00033758
-0.000294192
-0.000268806
-0.000263284
-0.000279688
-0.00031949
-0.000383697
-0.000473006
-0.000587526
-0.000727162
-0.00089124
-0.00107877
-0.00128857
-0.00151874
-0.00176782
-0.0020339
-0.00231503
-0.002609
-0.00291315
-0.00322525
-0.00354255
-0.00386331
-0.00418583
-0.00450835
-0.00482911
-0.00514676
-0.00545885
-0.00576482
-0.00606336
-0.00635345
-0.00663429
-0.00690583
-0.00716674
-0.00741769
-0.00765695
-0.00788459
-0.0081008
-0.00830459
-0.00849554
-0.00867399
-0.00884037
-0.00899425
-0.00913614
-0.00926605
-0.00938333
-0.00948831
-0.00958123
-0.00966172
-0.00972994
-0.00978588
-0.0098296
-0.00986171
-0.00988223
-0.00989129
-0.000423806
-0.000440361
-0.000470683
-0.000510388
-0.000556312
-0.000606434
-0.000659623
-0.000715278
-0.00077301
-0.000832502
-0.000893417
-0.000955416
-0.00101815
-0.00108125
-0.00114435
-0.001207
-0.00126865
-0.00132863
-0.00138622
-0.00144059
-0.00149094
-0.00153652
-0.00157659
-0.00161042
-0.00163735
-0.00165671
-0.00166783
-0.00167003
-0.0016627
-0.0016454
-0.00161792
-0.00158024
-0.0015324
-0.00147449
-0.00140668
-0.00132934
-0.00124323
-0.00114946
-0.00104954
-0.00094523
-0.000838571
-0.000731822
-0.000627359
-0.000527855
-0.000436248
-0.000355317
-0.000287738
-0.00023633
-0.000203662
-0.000191788
-0.000202829
-0.000238473
-0.000299793
-0.00038753
-0.00050185
-0.000642685
-0.00080937
-0.00100057
-0.0012149
-0.00145048
-0.00170567
-0.00197851
-0.0022668
-0.00256818
-0.00287954
-0.00319871
-0.00352325
-0.00385086
-0.00418009
-0.00450899
-0.00483535
-0.00515813
-0.00547519
-0.00578559
-0.00608807
-0.00638182
-0.00666584
-0.0069399
-0.00720334
-0.00745563
-0.00769657
-0.00792567
-0.00814243
-0.00834731
-0.00853916
-0.00871775
-0.00888469
-0.00903926
-0.0091812
-0.00931075
-0.00942804
-0.00953295
-0.00962559
-0.00970603
-0.00977444
-0.00983054
-0.00987453
-0.00990635
-0.00992685
-0.00993603
-0.000455325
-0.000468166
-0.000492663
-0.000526237
-0.00056682
-0.000612716
-0.000662843
-0.000716478
-0.000773081
-0.000832169
-0.000893281
-0.000955988
-0.00101988
-0.00108459
-0.00114968
-0.00121466
-0.00127889
-0.00134163
-0.00140218
-0.00145959
-0.00151311
-0.00156196
-0.00160535
-0.00164253
-0.00167277
-0.00169533
-0.00170941
-0.00171421
-0.00170901
-0.00169326
-0.00166668
-0.0016291
-0.00158044
-0.00152066
-0.00144985
-0.00136839
-0.00127701
-0.00117689
-0.00106948
-0.00095655
-0.000840225
-0.000722996
-0.000607505
-0.000496549
-0.000393269
-0.000300831
-0.000222147
-0.000160218
-0.000117938
-9.7782e-05
-0.000101857
-0.000132049
-0.000189628
-0.000275518
-0.000389956
-0.00053268
-0.000702932
-0.000899128
-0.00111963
-0.00136255
-0.00162606
-0.00190794
-0.00220556
-0.00251657
-0.00283765
-0.00316617
-0.00350012
-0.00383691
-0.0041746
-0.00451134
-0.00484516
-0.00517461
-0.00549802
-0.00581425
-0.00612187
-0.00641972
-0.00670782
-0.00698472
-0.00725105
-0.00750556
-0.00774797
-0.00797888
-0.00819701
-0.00840221
-0.00859489
-0.00877473
-0.00894205
-0.00909634
-0.00923827
-0.00936769
-0.00948489
-0.00959004
-0.00968277
-0.00976298
-0.00983104
-0.00988691
-0.00993122
-0.00996331
-0.00998345
-0.00999272
-0.000473911
-0.000484615
-0.000505572
-0.000535167
-0.000572032
-0.000614879
-0.000662778
-0.000715001
-0.000770915
-0.000829947
-0.000891581
-0.000955374
-0.0010209
-0.00108774
-0.00115537
-0.00122321
-0.00129055
-0.00135665
-0.00142075
-0.00148202
-0.00153954
-0.0015925
-0.00164007
-0.00168147
-0.0017159
-0.00174252
-0.00176037
-0.00176849
-0.00176601
-0.0017523
-0.00172691
-0.00168956
-0.00163997
-0.00157799
-0.00150367
-0.00141732
-0.00131963
-0.0012117
-0.00109494
-0.000971278
-0.000842962
-0.000712675
-0.000583342
-0.000457979
-0.000339937
-0.000232843
-0.000140098
-6.49636e-05
-1.04228e-05
2.02675e-05
2.49554e-05
1.47631e-06
-5.16464e-05
-0.000135447
-0.000250231
-0.000395474
-0.000570238
-0.000772926
-0.00100159
-0.00125408
-0.00152825
-0.00182164
-0.00213115
-0.00245413
-0.00278751
-0.00312806
-0.00347349
-0.00382147
-0.00416983
-0.00451621
-0.00485924
-0.00519714
-0.0055283
-0.00585111
-0.00616484
-0.0064678
-0.00676034
-0.00704113
-0.00731037
-0.00756763
-0.00781215
-0.00804417
-0.00826398
-0.00847074
-0.00866387
-0.00884392
-0.0090116
-0.00916606
-0.00930834
-0.00943782
-0.00955483
-0.00965963
-0.00975193
-0.00983209
-0.00989995
-0.00995576
-0.0099999
-0.0100321
-0.0100521
-0.0100613
-0.000481702
-0.000491119
-0.000509854
-0.000536896
-0.000571323
-0.000612185
-0.000658694
-0.000710133
-0.000765841
-0.000825234
-0.000887807
-0.000953195
-0.0010209
-0.0010904
-0.0011611
-0.0012323
-0.00130331
-0.00137343
-0.00144189
-0.00150782
-0.00157022
-0.00162819
-0.00168087
-0.00172744
-0.00176704
-0.00179866
-0.00182116
-0.00183339
-0.00183436
-0.0018233
-0.0017996
-0.00176276
-0.00171234
-0.00164804
-0.00156977
-0.00147777
-0.00137261
-0.00125531
-0.00112731
-0.000990733
-0.000847975
-0.000701816
-0.000555449
-0.000412305
-0.000276108
-0.000150922
-4.06959e-05
5.09044e-05
0.000120388
0.000164167
0.00017955
0.000164144
0.000116311
3.49996e-05
-8.02574e-05
-0.000228855
-0.000409489
-0.000620424
-0.000859397
-0.00112388
-0.0014113
-0.00171895
-0.00204341
-0.0023812
-0.00272924
-0.00308441
-0.0034439
-0.0038052
-0.00416644
-0.0045248
-0.00487884
-0.00522642
-0.00556651
-0.00589715
-0.00621746
-0.00652678
-0.00682433
-0.00710946
-0.00738207
-0.0076422
-0.00788959
-0.00812383
-0.00834438
-0.00855161
-0.00874546
-0.00892617
-0.0090941
-0.00924881
-0.00939113
-0.00952057
-0.00963733
-0.0097418
-0.00983378
-0.00991332
-0.00998078
-0.0100365
-0.0100808
-0.0101129
-0.010133
-0.010142
-0.000479915
-0.000488513
-0.000505871
-0.000531356
-0.000564346
-0.000604121
-0.000649981
-0.000701233
-0.000757248
-0.000817515
-0.000881626
-0.000949117
-0.00101952
-0.00109219
-0.00116641
-0.00124151
-0.00131686
-0.00139177
-0.00146545
-0.00153691
-0.00160511
-0.00166906
-0.00172787
-0.00178069
-0.00182653
-0.00186418
-0.0018923
-0.00190958
-0.00191489
-0.00190729
-0.00188596
-0.00185015
-0.00179919
-0.00173255
-0.00164995
-0.00155148
-0.00143766
-0.00130955
-0.00116841
-0.00101663
-0.000856669
-0.000691472
-0.000524551
-0.000359886
-0.00020172
-5.45406e-05
7.71128e-05
0.000188868
0.000276547
0.000336131
0.000364439
0.000358828
0.000317338
0.000238822
0.000122754
-3.0275e-05
-0.000218469
-0.00043968
-0.000691356
-0.000970638
-0.00127443
-0.00159932
-0.00194177
-0.00229764
-0.00266332
-0.00303576
-0.00341213
-0.00378944
-0.00416557
-0.00453772
-0.00490462
-0.00526374
-0.0056136
-0.00595341
-0.00628128
-0.00659723
-0.00690054
-0.0071908
-0.00746754
-0.00773099
-0.00798024
-0.00821612
-0.00843774
-0.00864585
-0.00884035
-0.00902182
-0.00918982
-0.00934486
-0.00948678
-0.009616
-0.00973237
-0.00983594
-0.00992747
-0.0100066
-0.0100739
-0.0101293
-0.0101734
-0.0102054
-0.0102256
-0.0102349
-0.00046923
-0.000477307
-0.000493862
-0.000518526
-0.000550855
-0.000590258
-0.00063609
-0.000687711
-0.000744579
-0.000806284
-0.00087247
-0.000942659
-0.00101626
-0.00109253
-0.00117078
-0.0012504
-0.00133083
-0.00141139
-0.00149117
-0.0015691
-0.00164406
-0.00171508
-0.00178122
-0.00184149
-0.00189473
-0.00193954
-0.0019744
-0.00199785
-0.0020086
-0.0020055
-0.00198745
-0.00195339
-0.0019023
-0.0018334
-0.00174616
-0.00164054
-0.00151698
-0.00137638
-0.00122045
-0.00105099
-0.000870762
-0.000683039
-0.000491744
-0.000301359
-0.000116737
5.6998e-05
0.000214556
0.000350678
0.000460382
0.000539159
0.000583128
0.00058928
0.000555151
0.000479466
0.000361995
0.000203402
5.80647e-06
-0.000228209
-0.000495615
-0.000792953
-0.00111666
-0.00146236
-0.00182599
-0.00220319
-0.00259016
-0.00298315
-0.003379
-0.00377492
-0.00416847
-0.00455665
-0.00493773
-0.00530997
-0.00567101
-0.00602059
-0.00635737
-0.00668106
-0.00699041
-0.00728567
-0.00756629
-0.0078328
-0.00808449
-0.0083223
-0.00854524
-0.00875444
-0.00894925
-0.0091311
-0.00929867
-0.00945361
-0.00959513
-0.00972354
-0.00983932
-0.00994258
-0.0100336
-0.0101121
-0.0101789
-0.0102342
-0.010278
-0.01031
-0.01033
-0.0103395
-0.000450023
-0.000457784
-0.000473963
-0.000498354
-0.000530598
-0.000570177
-0.000616503
-0.000669023
-0.00072731
-0.000791037
-0.000859841
-0.000933188
-0.0010104
-0.00109075
-0.00117361
-0.00125846
-0.00134478
-0.00143183
-0.00151863
-0.00160402
-0.00168688
-0.00176618
-0.00184098
-0.00191
-0.00197193
-0.00202519
-0.0020681
-0.00209906
-0.00211659
-0.00211924
-0.00210558
-0.00207413
-0.00202351
-0.00195261
-0.00186071
-0.00174759
-0.0016135
-0.00145921
-0.00128623
-0.00109636
-0.000892567
-0.000678485
-0.000458472
-0.000237515
-2.11939e-05
0.000184415
0.000373062
0.00053855
0.000674933
0.00077707
0.000839793
0.000859756
0.000834104
0.000761363
0.000641689
0.000475968
0.000266589
1.67005e-05
-0.000270025
-0.000589164
-0.000936649
-0.00130734
-0.00169603
-0.00209835
-0.00250998
-0.00292718
-0.00334595
-0.0037631
-0.0041761
-0.00458251
-0.00497986
-0.00536638
-0.00574012
-0.00610061
-0.00644653
-0.00677814
-0.00709423
-0.00739452
-0.00767967
-0.00794957
-0.00820398
-0.00844335
-0.00866721
-0.00887719
-0.00907232
-0.00925421
-0.00942142
-0.00957523
-0.00971595
-0.00984373
-0.00995868
-0.0100617
-0.0101518
-0.0102299
-0.0102959
-0.0103507
-0.010394
-0.0104261
-0.0104462
-0.0104557
-0.000422484
-0.000430099
-0.000446219
-0.00047072
-0.000503283
-0.000543449
-0.000590711
-0.000644628
-0.000704864
-0.000771119
-0.000842988
-0.00091989
-0.00100115
-0.0010861
-0.00117423
-0.00126507
-0.0013581
-0.00145253
-0.00154732
-0.0016413
-0.00173331
-0.00182226
-0.00190699
-0.00198624
-0.00205829
-0.00212149
-0.00217401
-0.00221407
-0.00223995
-0.00224985
-0.00224188
-0.00221414
-0.00216487
-0.00209265
-0.00199647
-0.00187577
-0.00173048
-0.00156111
-0.00136903
-0.00115592
-0.000925054
-0.000680276
-0.000426473
-0.000169362
8.46395e-05
0.000328386
0.000554432
0.000755379
0.000924011
0.00105399
0.0011391
0.00117533
0.0011596
0.00109006
0.000967005
0.000791861
0.000567588
0.00029822
-1.20029e-05
-0.000357582
-0.000733453
-0.00113369
-0.00155219
-0.00198402
-0.00242428
-0.00286895
-0.0033139
-0.00375548
-0.0041906
-0.00461677
-0.00503211
-0.00543445
-0.00582182
-0.00619419
-0.0065505
-0.00689024
-0.00721352
-0.00751947
-0.00780897
-0.00808183
-0.00833855
-0.0085794
-0.00880432
-0.00901438
-0.00920969
-0.00939058
-0.00955737
-0.00971027
-0.0098501
-0.00997704
-0.0100908
-0.0101927
-0.010282
-0.0103592
-0.0104247
-0.010479
-0.0105223
-0.0105538
-0.0105738
-0.0105832
-0.000386687
-0.000394302
-0.000410571
-0.00043542
-0.000468564
-0.000509623
-0.000558196
-0.000613935
-0.000676547
-0.000745719
-0.000821022
-0.000901889
-0.000987672
-0.00107784
-0.00117195
-0.00126957
-0.00137014
-0.00147286
-0.0015767
-0.00168046
-0.00178294
-0.00188292
-0.0019791
-0.00206998
-0.00215382
-0.00222869
-0.00229265
-0.00234369
-0.00237976
-0.00239863
-0.00239797
-0.00237544
-0.00232891
-0.00225654
-0.00215683
-0.00202872
-0.0018717
-0.00168598
-0.00147251
-0.00123357
-0.000971761
-0.000691407
-0.00039805
-9.83555e-05
0.000200306
0.000489646
0.000760669
0.00100429
0.00121164
0.00137496
0.00148698
0.00154251
0.00153811
0.00147172
0.0013438
0.00115654
0.000913609
0.000620161
0.00028136
-9.61417e-05
-0.00050613
-0.00094172
-0.00139456
-0.00186066
-0.00233433
-0.00281034
-0.00328458
-0.00375332
-0.00421354
-0.0046619
-0.00509664
-0.00551603
-0.00591863
-0.00630364
-0.00667078
-0.00701938
-0.00734921
-0.00766076
-0.00795454
-0.00823059
-0.00848942
-0.00873123
-0.00895702
-0.00916656
-0.00936184
-0.00954165
-0.00970757
-0.00985918
-0.00999739
-0.0101228
-0.0102356
-0.0103358
-0.010424
-0.0105003
-0.0105651
-0.0106186
-0.0106614
-0.0106925
-0.0107123
-0.0107219
-0.000342586
-0.000350303
-0.000366832
-0.000392153
-0.000426045
-0.000468234
-0.000518414
-0.00057629
-0.000641582
-0.000713975
-0.000793056
-0.000878314
-0.000969202
-0.00106526
-0.00116607
-0.00127123
-0.00138019
-0.00149218
-0.00160615
-0.0017209
-0.00183515
-0.00194759
-0.00205675
-0.00216098
-0.0022584
-0.00234697
-0.00242447
-0.00248865
-0.00253704
-0.00256699
-0.00257572
-0.00256048
-0.00251864
-0.00244775
-0.00234566
-0.00221067
-0.00204179
-0.0018388
-0.0016023
-0.00133425
-0.00103705
-0.000715778
-0.00037642
-2.65776e-05
0.00032511
0.000668859
0.000993738
0.00128863
0.0015427
0.0017463
0.00189072
0.00196911
0.00197746
0.00191389
0.0017792
0.00157645
0.00131015
0.000986853
0.000613287
0.000197559
-0.000253146
-0.000732759
-0.00122384
-0.00172925
-0.00224102
-0.00275309
-0.00326078
-0.00375989
-0.0042474
-0.00471999
-0.0051764
-0.00561424
-0.00603268
-0.00643108
-0.00680884
-0.00716639
-0.00750321
-0.00782021
-0.00811796
-0.00839673
-0.00865753
-0.00889975
-0.00912555
-0.00933427
-0.00952865
-0.00970724
-0.00987153
-0.0100216
-0.0101579
-0.0102811
-0.0103922
-0.0104909
-0.0105775
-0.0106528
-0.0107167
-0.0107695
-0.0108113
-0.0108418
-0.0108613
-0.0108707
-0.000289987
-0.000297856
-0.00031468
-0.000340534
-0.000375298
-0.000418798
-0.000470793
-0.00053102
-0.00059922
-0.000675114
-0.000758354
-0.000848501
-0.000945081
-0.00104764
-0.00115583
-0.00126929
-0.00138751
-0.00150973
-0.0016349
-0.00176181
-0.00188915
-0.0020155
-0.00213931
-0.00225876
-0.00237182
-0.00247633
-0.0025698
-0.0026496
-0.00271285
-0.00275651
-0.00277737
-0.00277212
-0.00273744
-0.00267013
-0.00256733
-0.00242658
-0.00224614
-0.00202516
-0.00176379
-0.00146389
-0.00112648
-0.000758466
-0.000365814
4.30111e-05
0.000457652
0.000866337
0.00125588
0.00161274
0.00192347
0.00217571
0.00235897
0.00246448
0.00248751
0.00242629
0.00228202
0.002059
0.00176327
0.00140317
0.000987251
0.000525699
2.87033e-05
-0.000491911
-0.00103778
-0.00159122
-0.00214731
-0.00270033
-0.00324522
-0.00377806
-0.00429603
-0.00479516
-0.00527413
-0.00573143
-0.00616633
-0.00657852
-0.00696766
-0.00733349
-0.00767712
-0.00799907
-0.00830053
-0.00858088
-0.00884246
-0.00908479
-0.00931006
-0.00951816
-0.00971063
-0.00988761
-0.0100496
-0.0101976
-0.0103316
-0.0104525
-0.0105608
-0.0106578
-0.0107428
-0.0108167
-0.0108793
-0.0109312
-0.0109719
-0.0110018
-0.0110211
-0.0110304
-0.000228551
-0.000236567
-0.000253692
-0.000280139
-0.000315885
-0.000360831
-0.000414783
-0.000477517
-0.000548833
-0.000628526
-0.000716314
-0.000811805
-0.000914554
-0.00102417
-0.00114039
-0.00126289
-0.0013912
-0.00152455
-0.00166194
-0.00180217
-0.00194392
-0.00208575
-0.00222599
-0.00236273
-0.00249376
-0.00261664
-0.00272882
-0.00282716
-0.00290837
-0.00296902
-0.00300534
-0.00301335
-0.0029889
-0.00292797
-0.00282685
-0.00268215
-0.00249102
-0.00225167
-0.00196347
-0.00162677
-0.00124679
-0.000825941
-0.000371681
0.000106277
0.000595597
0.00108214
0.0015499
0.00198197
0.00236148
0.00267258
0.00290298
0.00304065
0.00308043
0.00302042
0.00286265
0.00261318
0.00228016
0.00187424
0.00140654
0.000889445
0.00033502
-0.000245368
-0.000843959
-0.00145035
-0.00205627
-0.0026554
-0.00324216
-0.00381226
-0.00436242
-0.00489004
-0.0053934
-0.0058712
-0.0063232
-0.00674893
-0.00714917
-0.00752324
-0.00787305
-0.00819871
-0.0085027
-0.00878463
-0.00904636
-0.00928831
-0.0095117
-0.00971846
-0.00990868
-0.010083
-0.010242
-0.0103868
-0.0105182
-0.0106369
-0.0107424
-0.0108367
-0.0109197
-0.0109917
-0.0110529
-0.0111033
-0.0111428
-0.0111719
-0.0111908
-0.0112001
-0.000157827
-0.000165964
-0.000183419
-0.000210541
-0.000247376
-0.000293874
-0.000349891
-0.000415277
-0.000489921
-0.000573694
-0.000666353
-0.000767532
-0.000876845
-0.000993998
-0.00111879
-0.00125099
-0.00139012
-0.00153546
-0.00168605
-0.00184076
-0.00199832
-0.00215729
-0.00231591
-0.00247215
-0.00262364
-0.00276774
-0.00290147
-0.00302194
-0.00312476
-0.00320628
-0.00326201
-0.0032872
-0.00327688
-0.00322604
-0.00312988
-0.00298382
-0.00278376
-0.00252674
-0.00221135
-0.00183768
-0.00140823
-0.000926916
-0.000401303
0.000157742
0.000735888
0.0013161
0.00187871
0.0024024
0.0028659
0.00324865
0.00353767
0.0037129
0.00377107
0.00371017
0.00353361
0.00324954
0.00286904
0.00240597
0.00187511
0.00129112
0.000668246
1.97754e-05
-0.000642914
-0.00130974
-0.00197196
-0.00262264
-0.0032552
-0.00386613
-0.00445143
-0.00500917
-0.00553802
-0.00603695
-0.00650583
-0.00694517
-0.00735565
-0.0077375
-0.00809264
-0.00842177
-0.00872688
-0.00900923
-0.00926976
-0.00951021
-0.00973138
-0.00993522
-0.0101221
-0.010293
-0.0104488
-0.01059
-0.0107178
-0.0108331
-0.0109358
-0.0110271
-0.0111077
-0.0111773
-0.0112367
-0.0112853
-0.0113235
-0.0113518
-0.0113704
-0.0113795
-7.73269e-05
-8.55817e-05
-0.000103433
-0.000131329
-0.000169353
-0.000217491
-0.000275672
-0.000343848
-0.000422003
-0.000510051
-0.000607772
-0.000714848
-0.000831001
-0.000956062
-0.0010899
-0.00123235
-0.00138296
-0.00154107
-0.00170582
-0.00187622
-0.00205108
-0.00222892
-0.00240795
-0.00258603
-0.00276066
-0.00292904
-0.00308803
-0.00323409
-0.00336296
-0.00346984
-0.00354961
-0.00359677
-0.00360548
-0.00356954
-0.00348268
-0.00333899
-0.00313296
-0.00286002
-0.0025174
-0.00210407
-0.00162104
-0.00107233
-0.000464244
0.000190129
0.000874103
0.00156711
0.00224511
0.00288139
0.00344891
0.00392168
0.00427789
0.00449936
0.00457813
0.00451318
0.00431014
0.00398043
0.00353952
0.00300519
0.00239656
0.0017315
0.00102745
0.000300316
-0.000437232
-0.00117369
-0.00189927
-0.00260697
-0.00329001
-0.00394491
-0.0045677
-0.00515691
-0.00571188
-0.00623237
-0.00671829
-0.00717043
-0.00759008
-0.0079789
-0.00833798
-0.00866848
-0.00897377
-0.00925506
-0.00951349
-0.00975099
-0.00996876
-0.0101688
-0.0103514
-0.0105175
-0.010669
-0.0108063
-0.0109304
-0.0110416
-0.0111409
-0.011229
-0.0113064
-0.0113736
-0.0114306
-0.0114774
-0.0115143
-0.0115415
-0.0115597
-0.0115689
1.3402e-05
5.00161e-06
-1.3331e-05
-4.20945e-05
-8.13824e-05
-0.000131227
-0.00019165
-0.000262716
-0.000344471
-0.000436858
-0.000539692
-0.000652759
-0.000775926
-0.000909162
-0.00105243
-0.00120557
-0.00136823
-0.00153986
-0.00171977
-0.00190709
-0.00210073
-0.00229922
-0.00250074
-0.00270307
-0.0029037
-0.00309976
-0.00328787
-0.00346401
-0.00362348
-0.00376091
-0.00387024
-0.00394522
-0.00397896
-0.00396391
-0.00389217
-0.00375613
-0.00354857
-0.00326285
-0.00289401
-0.00243953
-0.0018993
-0.00127675
-0.000572933
0.000193272
0.00100311
0.00183235
0.00265174
0.00342754
0.00412419
0.00470748
0.0051484
0.00542443
0.00552547
0.00545108
0.00521072
0.00482066
0.00430222
0.0036784
0.00297372
0.00221124
0.00141137
0.000591726
-0.000232263
-0.00104781
-0.00184459
-0.00261494
-0.00335278
-0.00405437
-0.00471717
-0.00533929
-0.00592086
-0.00646177
-0.00696383
-0.00742774
-0.00785534
-0.00824952
-0.0086125
-0.00893988
-0.00924498
-0.00952376
-0.00977851
-0.0100116
-0.0102244
-0.0104193
-0.0105967
-0.0107579
-0.0109042
-0.0110363
-0.0111556
-0.011262
-0.0113572
-0.0114416
-0.0115155
-0.0115797
-0.0116341
-0.011679
-0.0117145
-0.0117408
-0.011758
-0.0117678
0.000114767
0.000106177
8.72948e-05
5.76118e-05
1.70285e-05
-3.45488e-05
-9.72445e-05
-0.000171207
-0.000256531
-0.000353194
-0.000461093
-0.000580159
-0.000710429
-0.000852013
-0.00100496
-0.00116915
-0.00134438
-0.00153025
-0.00172625
-0.0019317
-0.00214558
-0.00236646
-0.00259252
-0.00282165
-0.00305138
-0.00327878
-0.0035002
-0.00371114
-0.00390633
-0.00408035
-0.00422571
-0.00433549
-0.00440152
-0.00441485
-0.00436582
-0.00424463
-0.00404182
-0.00374824
-0.00335607
-0.00286027
-0.0022596
-0.00156104
-0.000743143
0.000153143
0.00111241
0.00210687
0.00310037
0.00404994
0.00490864
0.00563073
0.00617715
0.0065187
0.00664288
0.00655085
0.00625772
0.00578693
0.00516792
0.00443193
0.00360924
0.00272855
0.0018144
0.000887513
-3.50936e-05
-0.000939636
-0.00181569
-0.00265463
-0.00345197
-0.0042032
-0.00490681
-0.00556221
-0.0061701
-0.00673113
-0.00724738
-0.00772106
-0.00815494
-0.00855161
-0.00891315
-0.00924187
-0.00954253
-0.00981632
-0.0100656
-0.0102926
-0.0104991
-0.0106873
-0.0108579
-0.0110125
-0.0111527
-0.0112793
-0.0113929
-0.011494
-0.0115843
-0.0116643
-0.0117345
-0.0117958
-0.0118475
-0.0118902
-0.0119238
-0.0119488
-0.0119648
-0.0119766
0.000227149
0.000218342
0.000198893
0.0001683
0.000126445
7.31672e-05
8.25605e-06
-6.85054e-05
-0.000157261
-0.000258056
-0.000370905
-0.000495911
-0.000633288
-0.000783278
-0.000946037
-0.00112157
-0.00130975
-0.0015105
-0.00172348
-0.00194815
-0.0021836
-0.00242851
-0.00268124
-0.00293984
-0.00320193
-0.00346448
-0.00372357
-0.00397441
-0.00421135
-0.00442804
-0.00461721
-0.00477001
-0.00487715
-0.00492815
-0.00491147
-0.00481464
-0.00462531
-0.00433136
-0.00392128
-0.00338548
-0.00271669
-0.00190733
-0.000990761
5.05961e-05
0.00118661
0.00238183
0.00359071
0.00475842
0.00582318
0.00672232
0.00740136
0.00782173
0.00796842
0.00784592
0.0074776
0.00689847
0.006149
0.0052711
0.00430284
0.00327942
0.00223089
0.00117971
0.000144603
-0.000859634
-0.001823
-0.00273684
-0.00359652
-0.00439972
-0.00514514
-0.00583374
-0.00646584
-0.00704502
-0.00757351
-0.00805443
-0.0084913
-0.00888784
-0.00924735
-0.00957238
-0.00986701
-0.0101338
-0.0103753
-0.0105942
-0.0107925
-0.0109723
-0.011135
-0.011282
-0.0114148
-0.0115344
-0.0116415
-0.0117371
-0.0118221
-0.0118975
-0.0119635
-0.0120209
-0.0120697
-0.0121101
-0.0121421
-0.0121656
-0.0121813
-0.0121921
0.000350931
0.000341921
0.000321948
0.000290508
0.000247462
0.000192588
0.000125603
4.62226e-05
-4.57589e-05
-0.000150481
-0.000268106
-0.000398912
-0.000543284
-0.000701605
-0.000874162
-0.00106113
-0.00126257
-0.00147872
-0.00170937
-0.00195416
-0.00221237
-0.00248292
-0.00276444
-0.00305522
-0.00335294
-0.00365446
-0.00395576
-0.0042519
-0.00453695
-0.00480396
-0.00504502
-0.00525052
-0.00540933
-0.00550937
-0.005537
-0.00547694
-0.00531325
-0.00503005
-0.0046115
-0.00404309
-0.00331355
-0.00241698
-0.00136095
-0.000145478
0.0012016
0.00264154
0.00411909
0.00556405
0.00689404
0.00802178
0.00887037
0.00938617
0.00955123
0.00937755
0.0089019
0.0081765
0.00725719
0.00619905
0.00505115
0.00385881
0.00265145
0.00145638
0.000293969
-0.000821155
-0.0018787
-0.00287251
-0.00379825
-0.0046543
-0.0054409
-0.0061609
-0.00681591
-0.00741011
-0.00794715
-0.00843178
-0.00886865
-0.00926212
-0.00961574
-0.00993339
-0.0102191
-0.0104765
-0.010708
-0.0109167
-0.0111051
-0.0112747
-0.0114278
-0.0115658
-0.0116903
-0.0118019
-0.0119016
-0.011991
-0.0120701
-0.01214
-0.0122017
-0.0122549
-0.0123006
-0.0123382
-0.0123682
-0.0123903
-0.0124053
-0.0124152
0.000486491
0.000477329
0.000456904
0.00042472
0.000380614
0.000324308
0.000255449
0.000173692
7.87497e-05
-2.96304e-05
-0.000151768
-0.000288112
-0.000439207
-0.000605599
-0.000787766
-0.000986133
-0.00120109
-0.00143278
-0.00168151
-0.00194709
-0.00222908
-0.00252679
-0.00283916
-0.00316468
-0.00350114
-0.00384546
-0.00419366
-0.00454084
-0.0048809
-0.00520643
-0.00550868
-0.0057777
-0.00600076
-0.00616343
-0.00625011
-0.0062426
-0.00612089
-0.00586415
-0.00545124
-0.0048615
-0.00407686
-0.0030844
-0.00187915
-0.000471939
0.00112331
0.0028613
0.00467602
0.00647702
0.00815318
0.00958161
0.0106504
0.0112822
0.011456
0.0111979
0.0105677
0.00964249
0.00850103
0.0072156
0.00584422
0.00445116
0.00305983
0.0017014
0.000396745
-0.000839956
-0.00199928
-0.0030763
-0.00406914
-0.00497809
-0.00580506
-0.00655353
-0.0072275
-0.00783247
-0.00837286
-0.00885756
-0.00929015
-0.00967609
-0.0100197
-0.0103261
-0.0105996
-0.0108447
-0.0110638
-0.0112598
-0.0114359
-0.011594
-0.0117359
-0.0118634
-0.0119783
-0.0120811
-0.0121728
-0.012255
-0.0123277
-0.0123918
-0.0124485
-0.0124973
-0.0125391
-0.0125738
-0.0126013
-0.0126222
-0.0126365
-0.0126458
0.000634146
0.00062488
0.000604088
0.000571285
0.000526283
0.00046875
0.000398275
0.000314445
0.000216884
0.000105214
-2.10366e-05
-0.000162476
-0.000319819
-0.00049381
-0.00068518
-0.000894629
-0.0011228
-0.00137017
-0.00163711
-0.0019239
-0.00223051
-0.0025567
-0.00290172
-0.00326428
-0.00364238
-0.00403325
-0.00443317
-0.00483735
-0.00523969
-0.00563254
-0.00600662
-0.00635075
-0.00665285
-0.00689429
-0.00705794
-0.00712253
-0.00706375
-0.00685499
-0.00646822
-0.00587482
-0.00504746
-0.00396337
-0.00260882
-0.000983761
0.000902356
0.00300236
0.00524087
0.0075034
0.0096392
0.0114719
0.0128327
0.013605
0.0137674
0.0133712
0.0125157
0.0113169
0.00988504
0.00831491
0.0066852
0.00504177
0.00343529
0.00189247
0.000431442
-0.000935538
-0.0022017
-0.00336484
-0.0044247
-0.00538449
-0.00624825
-0.00702133
-0.00770919
-0.00831603
-0.00885764
-0.00933632
-0.00975892
-0.0101323
-0.0104614
-0.0107524
-0.01101
-0.0112387
-0.0114422
-0.0116233
-0.0117847
-0.0119293
-0.0120584
-0.0121744
-0.0122784
-0.0123712
-0.0124541
-0.0125281
-0.012594
-0.0126522
-0.0127028
-0.0127471
-0.0127848
-0.0128163
-0.0128414
-0.0128606
-0.0128739
-0.0128825
0.00079408
0.000784735
0.000763659
0.000730376
0.000684674
0.000626176
0.000554416
0.000468906
0.000369177
0.000254726
0.000124945
-2.0937e-05
-0.000183833
-0.00036474
-0.000564681
-0.000784645
-0.00102554
-0.00128816
-0.00157317
-0.00188123
-0.00221296
-0.00256861
-0.00294765
-0.00334913
-0.00377155
-0.00421265
-0.00466909
-0.00513632
-0.00560843
-0.00607789
-0.00653518
-0.00696861
-0.00736404
-0.00770387
-0.00796606
-0.00812679
-0.00815736
-0.00802482
-0.00769272
-0.00712239
-0.00627478
-0.00511342
-0.00360912
-0.00174467
0.000467666
0.00300233
0.00577315