/*--------------------------------*- C++ -*----------------------------------*\
| =========                 |                                                 |
| \\      /  F ield         | OpenFOAM: The Open Source CFD Toolbox           |
|  \\    /   O peration     | Version:  2312                                  |
|   \\  /    A nd           | Website:  www.openfoam.com                      |
|    \\/     M anipulation  |                                                 |
\*---------------------------------------------------------------------------*/
FoamFile
{
    version     2.0;
    format      ascii;
    arch        "LSB;label=32;scalar=64";
    class       surfaceScalarField;
    location    "0.25";
    object      phi;
}
// * * * * * * * * * * * * * * * * * * * * * * * * * * * * * * * * * * * * * //

dimensions      [0 3 -1 0 0 0 0];

oriented        oriented;

internalField   nonuniform List<scalar> 
19800
(
3.92269e-13
-3.73016e-13
-1.11835e-12
1.51063e-12
-2.3862e-12
1.26777e-12
-2.60286e-12
2.16675e-13
-2.10933e-12
-4.93086e-13
-1.32996e-12
-7.78176e-13
-5.23177e-13
-8.04759e-13
2.07163e-13
-7.27789e-13
8.27425e-13
-6.17965e-13
1.33358e-12
-5.04767e-13
1.72589e-12
-3.92052e-13
2.00691e-12
-2.81305e-13
2.19005e-12
-1.83097e-13
2.26617e-12
-7.52829e-14
2.23375e-12
3.38968e-14
2.09517e-12
1.39991e-13
1.84261e-12
2.53285e-13
1.47463e-12
3.68039e-13
9.92543e-13
4.81962e-13
3.94106e-13
5.9869e-13
-3.19142e-13
7.1401e-13
-1.14558e-12
8.27227e-13
-2.07228e-12
9.26951e-13
-3.08629e-12
1.0137e-12
-4.16824e-12
1.0817e-12
-5.29422e-12
1.12655e-12
-6.43602e-12
1.14346e-12
-7.55564e-12
1.12186e-12
-8.61538e-12
1.06163e-12
-9.57134e-12
9.57095e-13
-1.03724e-11
8.01886e-13
-1.09649e-11
5.93813e-13
-1.12964e-11
3.33695e-13
-1.13094e-11
1.57978e-14
-1.09436e-11
-3.63332e-13
-1.01625e-11
-7.79445e-13
-8.89597e-12
-1.26547e-12
-7.10546e-12
-1.78949e-12
-4.74351e-12
-2.36094e-12
-1.81648e-12
-2.92658e-12
1.72533e-12
-3.54225e-12
5.88309e-12
-4.15909e-12
1.06473e-11
-4.76624e-12
1.59855e-11
-5.33987e-12
2.18678e-11
-5.88273e-12
2.82263e-11
-6.35889e-12
3.49867e-11
-6.76175e-12
4.2064e-11
-7.07772e-12
4.93573e-11
-7.29293e-12
5.67541e-11
-7.39789e-12
6.414e-11
-7.3872e-12
7.13995e-11
-7.2594e-12
7.84133e-11
-7.01462e-12
8.50685e-11
-6.65634e-12
9.12635e-11
-6.19503e-12
9.69057e-11
-5.64181e-12
1.01918e-10
-5.01138e-12
1.06229e-10
-4.31122e-12
1.09801e-10
-3.57249e-12
1.12608e-10
-2.80808e-12
1.14636e-10
-2.02979e-12
1.15887e-10
-1.25071e-12
1.1638e-10
-4.92775e-13
1.16153e-10
2.28641e-13
1.15246e-10
9.08328e-13
1.13712e-10
1.53274e-12
1.11613e-10
2.09948e-12
1.09009e-10
2.60337e-12
1.05971e-10
3.04033e-12
1.02561e-10
3.41063e-12
9.88494e-11
3.71395e-12
9.48951e-11
3.95353e-12
9.07601e-11
4.13343e-12
8.64977e-11
4.25906e-12
8.21619e-11
4.33587e-12
7.77965e-11
4.36667e-12
7.34398e-11
4.3595e-12
6.91175e-11
4.32225e-12
6.48606e-11
4.25535e-12
6.06913e-11
4.17173e-12
5.66154e-11
4.07013e-12
5.26668e-11
3.95256e-12
4.88327e-11
3.82812e-12
4.51251e-11
3.70828e-12
4.15455e-11
3.57836e-12
3.80874e-11
3.45527e-12
3.47639e-11
3.32595e-12
3.15693e-11
3.19698e-12
2.85054e-11
3.06286e-12
2.55773e-11
2.92839e-12
2.27735e-11
2.80267e-12
2.00893e-11
2.68086e-12
1.75103e-11
2.58283e-12
1.5013e-11
2.49836e-12
1.25706e-11
2.43931e-12
1.01706e-11
2.39753e-12
7.79249e-12
2.37672e-12
5.4062e-12
2.39181e-12
2.85286e-12
2.56156e-12
2.86172e-12
2.38255e-12
-2.75557e-12
3.02439e-12
8.69078e-13
2.24034e-12
2.05236e-12
1.50957e-12
9.48272e-13
1.31104e-12
-2.92628e-13
1.47356e-12
-9.37501e-13
1.80321e-12
-1.13062e-12
2.16182e-12
-1.08327e-12
2.47034e-12
-9.24776e-13
2.67454e-12
-7.08758e-13
2.7498e-12
-4.6761e-13
2.67442e-12
-2.05596e-13
2.42855e-12
6.41777e-14
2.00471e-12
3.50681e-13
1.38951e-12
6.50971e-13
5.68651e-13
9.61782e-13
-4.62076e-13
1.28416e-12
-1.71144e-12
1.61745e-12
-3.18465e-12
1.95574e-12
-4.88092e-12
2.29603e-12
-6.79823e-12
2.63215e-12
-8.92617e-12
2.9551e-12
-1.12533e-11
3.25334e-12
-1.37577e-11
3.51763e-12
-1.64106e-11
3.73544e-12
-1.91758e-11
3.89422e-12
-2.20087e-11
3.97976e-12
-2.48605e-11
3.97676e-12
-2.76717e-11
3.87493e-12
-3.03735e-11
3.66088e-12
-3.28922e-11
3.32335e-12
-3.51473e-11
2.8529e-12
-3.70538e-11
2.24488e-12
-3.85244e-11
1.49045e-12
-3.94777e-11
5.92897e-13
-3.98138e-11
-4.41643e-13
-3.9463e-11
-1.61515e-12
-3.83434e-11
-2.90823e-12
-3.63984e-11
-4.3057e-12
-3.35525e-11
-5.77389e-12
-2.97929e-11
-7.30443e-12
-2.51001e-11
-8.85416e-12
-1.94793e-11
-1.03888e-11
-1.29529e-11
-1.18682e-11
-5.60509e-12
-1.32319e-11
2.51115e-12
-1.44751e-11
1.12889e-11
-1.55405e-11
2.05978e-11
-1.63886e-11
3.02925e-11
-1.69875e-11
4.02155e-11
-1.73213e-11
5.01882e-11
-1.73629e-11
6.00458e-11
-1.71182e-11
6.9617e-11
-1.65851e-11
7.87335e-11
-1.57722e-11
8.72407e-11
-1.47014e-11
9.50019e-11
-1.34032e-11
1.01903e-10
-1.19126e-11
1.07881e-10
-1.02901e-11
1.12836e-10
-8.53094e-12
1.16741e-10
-6.71372e-12
1.19581e-10
-4.87089e-12
1.21377e-10
-3.04481e-12
1.22148e-10
-1.26209e-12
1.21949e-10
4.28476e-13
1.20843e-10
2.01524e-12
1.18908e-10
3.4663e-12
1.16239e-10
4.77049e-12
1.12923e-10
5.91903e-12
1.09061e-10
6.90472e-12
1.04745e-10
7.72588e-12
1.00069e-10
8.38868e-12
9.51242e-11
8.89666e-12
8.99973e-11
9.26105e-12
8.47633e-11
9.49205e-12
7.94936e-11
9.60671e-12
7.42475e-11
9.6114e-12
6.90803e-11
9.52737e-12
6.40368e-11
9.36743e-12
5.9143e-11
9.14505e-12
5.4438e-11
8.8803e-12
4.99292e-11
8.57268e-12
4.56418e-11
8.24044e-12
4.15761e-11
7.89134e-12
3.77483e-11
7.53391e-12
3.41412e-11
7.18502e-12
3.07687e-11
6.82991e-12
2.76229e-11
6.47108e-12
2.46965e-11
6.12325e-12
2.19857e-11
5.77367e-12
1.94746e-11
5.4383e-12
1.71548e-11
5.12622e-12
1.50003e-11
4.83543e-12
1.29977e-11
4.58338e-12
1.11223e-11
4.37099e-12
9.35215e-12
4.20718e-12
7.66473e-12
4.08514e-12
6.03655e-12
4.00245e-12
4.41254e-12
4.00935e-12
2.51649e-12
4.44461e-12
5.38175e-12
2.23339e-12
-4.98905e-12
4.34522e-12
-1.24215e-12
5.03758e-12
1.36084e-12
4.94809e-12
1.03872e-12
4.69033e-12
-3.36862e-14
4.55089e-12
-7.96614e-13
4.52552e-12
-1.10397e-12
4.54852e-12
-1.10552e-12
4.55645e-12
-9.32797e-13
4.4952e-12
-6.4804e-13
4.31855e-12
-2.91291e-13
3.99488e-12
1.18289e-13
3.49407e-12
5.65735e-13
2.80093e-12
1.04462e-12
1.89031e-12
1.56203e-12
7.47967e-13
2.10422e-12
-6.31545e-13
2.66369e-12
-2.26236e-12
3.24841e-12
-4.14965e-12
3.84319e-12
-6.28867e-12
4.4347e-12
-8.67795e-12
5.02012e-12
-1.13066e-11
5.58161e-12
-1.41586e-11
6.10324e-12
-1.72103e-11
6.5683e-12
-2.04315e-11
6.95715e-12
-2.37843e-11
7.24889e-12
-2.72235e-11
7.42131e-12
-3.06965e-11
7.45195e-12
-3.4139e-11
7.31946e-12
-3.74803e-11
7.00444e-12
-4.06396e-11
6.4858e-12
-4.35321e-11
5.74928e-12
-4.60648e-11
4.78124e-12
-4.81421e-11
3.57047e-12
-4.96684e-11
2.12047e-12
-5.05434e-11
4.33604e-13
-5.06705e-11
-1.48832e-12
-4.99671e-11
-3.61235e-12
-4.83513e-11
-5.9221e-12
-4.57606e-11
-8.3653e-12
-4.21554e-11
-1.09109e-11
-3.75087e-11
-1.3502e-11
-3.18244e-11
-1.60735e-11
-2.51332e-11
-1.85604e-11
-1.74785e-11
-2.08883e-11
-8.95885e-12
-2.29944e-11
3.15163e-13
-2.48135e-11
1.0206e-11
-2.62808e-11
2.0556e-11
-2.73389e-11
3.1187e-11
-2.79521e-11
4.1906e-11
-2.80825e-11
5.25256e-11
-2.77373e-11
6.28514e-11
-2.69085e-11
7.26993e-11
-2.56186e-11
8.19023e-11
-2.39043e-11
9.03099e-11
-2.1813e-11
9.77917e-11
-1.93966e-11
1.04239e-10
-1.67393e-11
1.09612e-10
-1.39059e-11
1.13855e-10
-1.09559e-11
1.16947e-10
-7.96363e-12
1.18908e-10
-5.00434e-12
1.19785e-10
-2.13711e-12
1.19621e-10
5.90911e-13
1.18488e-10
3.14799e-12
1.16486e-10
5.46539e-12
1.13706e-10
7.54913e-12
1.10256e-10
9.36711e-12
1.06238e-10
1.09229e-11
1.01756e-10
1.22089e-11
9.69076e-11
1.32381e-11
9.17924e-11
1.40112e-11
8.64976e-11
1.4557e-11
8.11064e-11
1.48797e-11
7.56964e-11
1.5015e-11
7.03273e-11
1.49791e-11
6.50576e-11
1.47982e-11
5.99335e-11
1.44934e-11
5.49889e-11
1.40919e-11
5.0256e-11
1.36089e-11
4.57601e-11
1.30719e-11
4.15098e-11
1.24896e-11
3.75205e-11
1.18792e-11
3.37965e-11
1.12607e-11
3.03351e-11
1.06396e-11
2.71365e-11
1.00273e-11
2.42012e-11
9.41038e-12
2.15029e-11
8.82256e-12
1.90268e-11
8.25343e-12
1.67585e-11
7.70799e-12
1.46842e-11
7.19941e-12
1.27766e-11
6.74071e-12
1.10236e-11
6.33309e-12
9.40809e-12
5.98846e-12
7.90915e-12
5.70734e-12
6.51159e-12
5.4888e-12
5.1914e-12
5.33172e-12
3.88313e-12
5.32415e-12
2.31753e-12
6.00574e-12
7.69899e-12
1.17617e-12
-6.16507e-12
3.24037e-12
-3.30551e-12
4.72979e-12
-1.27709e-13
5.42178e-12
3.4719e-13
5.69217e-12
-3.0414e-13
5.77956e-12
-8.84571e-13
5.81691e-12
-1.14207e-12
5.83001e-12
-1.1195e-12
5.79099e-12
-8.94593e-13
5.6687e-12
-5.26332e-13
5.43209e-12
-5.5117e-14
5.04557e-12
5.04465e-13
4.48295e-12
1.12799e-12
3.72022e-12
1.80692e-12
2.73656e-12
2.54543e-12
1.51705e-12
3.32369e-12
3.80815e-14
4.14264e-12
-1.69522e-12
4.98134e-12
-3.69395e-12
5.84068e-12
-5.96508e-12
6.70343e-12
-8.49917e-12
7.55094e-12
-1.12872e-11
8.36618e-12
-1.43137e-11
9.12706e-12
-1.75562e-11
9.80938e-12
-2.09849e-11
1.03861e-11
-2.45631e-11
1.08285e-11
-2.8246e-11
1.11062e-11
-3.19794e-11
1.11875e-11
-3.56997e-11
1.1042e-11
-3.93329e-11
1.06402e-11
-4.27979e-11
9.95396e-12
-4.60056e-11
8.96034e-12
-4.8858e-11
7.63655e-12
-5.12534e-11
5.96737e-12
-5.30883e-11
3.95529e-12
-5.42549e-11
1.59935e-12
-5.46501e-11
-1.09421e-12
-5.41741e-11
-4.08909e-12
-5.27421e-11
-7.35418e-12
-5.0281e-11
-1.0826e-11
-4.67366e-11
-1.44555e-11
-4.20804e-11
-1.81594e-11
-3.63073e-11
-2.18471e-11
-2.94409e-11
-2.54267e-11
-2.15358e-11
-2.87937e-11
-1.26791e-11
-3.18507e-11
-3.00081e-12
-3.44901e-11
7.35301e-12
-3.66352e-11
1.82167e-11
-3.82045e-11
2.93982e-11
-3.91325e-11
4.06887e-11
-3.93708e-11
5.18768e-11
-3.89235e-11
6.27527e-11
-3.77831e-11
7.3115e-11
-3.59818e-11
8.27819e-11
-3.35726e-11
9.15907e-11
-3.06241e-11
9.94155e-11
-2.72234e-11
1.06135e-10
-2.34595e-11
1.11685e-10
-1.9458e-11
1.16028e-10
-1.52983e-11
1.19154e-10
-1.109e-11
1.21078e-10
-6.92806e-12
1.2185e-10
-2.90895e-12
1.21539e-10
9.00307e-13
1.20248e-10
4.43639e-12
1.18041e-10
7.66656e-12
1.15034e-10
1.0554e-11
1.11339e-10
1.30604e-11
1.07073e-10
1.51908e-11
1.02342e-10
1.69425e-11
9.72564e-11
1.83245e-11
9.19092e-11
1.9355e-11
8.64049e-11
2.00608e-11
8.08198e-11
2.0462e-11
7.52295e-11
2.06036e-11
6.97063e-11
2.05009e-11
6.43044e-11
2.0205e-11
5.90576e-11
1.97368e-11
5.40293e-11
1.91267e-11
4.92238e-11
1.84111e-11
4.46788e-11
1.76179e-11
4.0407e-11
1.67645e-11
3.64044e-11
1.58767e-11
3.26901e-11
1.49718e-11
2.926e-11
1.40698e-11
2.61137e-11
1.31741e-11
2.32132e-11
1.23139e-11
2.0569e-11
1.14707e-11
1.8159e-11
1.06645e-11
1.59617e-11
9.9058e-12
1.39567e-11
9.20521e-12
1.21279e-11
8.57009e-12
1.04535e-11
8.00612e-12
8.91737e-12
7.52315e-12
7.50232e-12
7.12013e-12
6.19075e-12
6.79916e-12
4.95788e-12
6.56706e-12
3.74483e-12
6.54106e-12
2.26747e-12
7.4807e-12
9.96675e-12
4.85416e-13
-6.64987e-12
2.02292e-12
-4.84155e-12
3.64226e-12
-1.74641e-12
4.79518e-12
-8.06228e-13
5.48902e-12
-9.996e-13
5.9189e-12
-1.31652e-12
6.19218e-12
-1.41725e-12
6.36241e-12
-1.29102e-12
6.43349e-12
-9.66342e-13
6.3904e-12
-4.83802e-13
6.20679e-12
1.27649e-13
5.86312e-12
8.46927e-13
5.33866e-12
1.65112e-12
4.60002e-12
2.54467e-12
3.63428e-12
3.51089e-12
2.41929e-12
4.53867e-12
9.52469e-13
5.60908e-12
-7.95333e-13
6.72771e-12
-2.82459e-12
7.86718e-12
-5.13459e-12
9.00967e-12
-7.72786e-12
1.01401e-11
-1.05961e-11
1.12307e-11
-1.37256e-11
1.22538e-11
-1.7096e-11
1.31784e-11
-2.06798e-11
1.397e-11
-2.44413e-11
1.45914e-11
-2.83363e-11
1.5003e-11
-3.23109e-11
1.51641e-11
-3.63004e-11
1.50335e-11
-4.02289e-11
1.4571e-11
-4.40133e-11
1.37411e-11
-4.75566e-11
1.25067e-11
-5.07579e-11
1.08401e-11
-5.35077e-11
8.71802e-12
-5.56901e-11
6.13726e-12
-5.719e-11
3.09847e-12
-5.78951e-11
-3.89358e-13
-5.76877e-11
-4.29612e-12
-5.64709e-11
-8.57048e-12
-5.41573e-11
-1.31393e-11
-5.0685e-11
-1.79278e-11
-4.60129e-11
-2.28323e-11
-4.01259e-11
-2.77344e-11
-3.30458e-11
-3.25051e-11
-2.48255e-11
-3.70126e-11
-1.55624e-11
-4.11137e-11
-5.376e-12
-4.46753e-11
5.56886e-12
-4.75791e-11
1.70776e-11
-4.97138e-11
2.89365e-11
-5.09904e-11
4.09392e-11
-5.13715e-11
5.28278e-11
-5.08115e-11
6.43735e-11
-4.93292e-11
7.53537e-11
-4.69638e-11
8.55689e-11
-4.37884e-11
9.48401e-11
-3.98958e-11
1.03015e-10
-3.54005e-11
1.10015e-10
-3.04607e-11
1.15737e-10
-2.5183e-11
1.20131e-10
-1.96932e-11
1.23227e-10
-1.4186e-11
1.25043e-10
-8.74397e-12
1.25631e-10
-3.49822e-12
1.25069e-10
1.45779e-12
1.23454e-10
6.04864e-12
1.209e-10
1.02174e-11
1.17536e-10
1.39164e-11
1.13469e-10
1.71289e-11
1.08832e-10
1.98278e-11
1.03737e-10
2.20367e-11
9.83063e-11
2.3755e-11
9.26369e-11
2.50213e-11
8.6835e-11
2.58624e-11
8.09808e-11
2.63166e-11
7.51626e-11
2.64239e-11
6.94244e-11
2.62358e-11
6.38488e-11
2.57823e-11
5.84673e-11
2.51175e-11
5.33097e-11
2.42828e-11
4.84199e-11
2.33046e-11
4.38124e-11
2.22252e-11
3.94932e-11
2.1079e-11
3.54787e-11
1.98933e-11
3.17608e-11
1.86885e-11
2.83404e-11
1.74887e-11
2.52062e-11
1.63133e-11
2.23513e-11
1.51722e-11
1.9754e-11
1.40671e-11
1.73957e-11
1.30218e-11
1.52585e-11
1.20422e-11
1.33184e-11
1.11443e-11
1.15594e-11
1.03319e-11
9.95868e-12
9.61026e-12
8.50019e-12
8.98382e-12
7.1651e-12
8.45489e-12
5.93413e-12
8.02604e-12
4.78108e-12
7.71629e-12
3.64663e-12
7.68092e-12
2.23667e-12
8.88948e-12
1.22022e-11
1.97086e-13
-6.84585e-12
1.35474e-12
-5.99735e-12
2.88913e-12
-3.28063e-12
4.20521e-12
-2.12391e-12
5.18442e-12
-1.98141e-12
5.88556e-12
-2.02026e-12
6.3968e-12
-1.93024e-12
6.75463e-12
-1.64958e-12
6.97556e-12
-1.18761e-12
7.05385e-12
-5.62768e-13
6.97616e-12
2.04023e-13
6.72e-12
1.10141e-12
6.26484e-12
2.10494e-12
5.59383e-12
3.21512e-12
4.69023e-12
4.41446e-12
3.527e-12
5.70171e-12
2.08209e-12
7.05292e-12
3.48626e-13
8.4589e-12
-1.67622e-12
9.88875e-12
-4.00656e-12
1.13362e-11
-6.64661e-12
1.27763e-11
-9.58779e-12
1.41684e-11
-1.2821e-11
1.54845e-11
-1.63288e-11
1.66853e-11
-2.00868e-11
1.77285e-11
-2.40616e-11
1.85677e-11
-2.82103e-11
1.91534e-11
-3.24789e-11
1.9434e-11
-3.68013e-11
1.93573e-11
-4.11e-11
1.88717e-11
-4.52854e-11
1.79294e-11
-4.92578e-11
1.64821e-11
-5.29082e-11
1.44929e-11
-5.61171e-11
1.19283e-11
-5.87562e-11
8.77697e-12
-6.06948e-11
5.03765e-12
-6.18163e-11
7.33147e-13
-6.19666e-11
-4.14488e-12
-6.10446e-11
-9.49245e-12
-5.89434e-11
-1.52408e-11
-5.5582e-11
-2.12889e-11
-5.09046e-11
-2.75091e-11
-4.4885e-11
-3.37535e-11
-3.75387e-11
-3.98497e-11
-2.8913e-11
-4.5636e-11
-1.91126e-11
-5.09135e-11
-8.27059e-12
-5.55165e-11
3.43642e-12
-5.92844e-11
1.57926e-11
-6.20702e-11
2.85593e-11
-6.37581e-11
4.14751e-11
-6.4288e-11
5.42764e-11
-6.36136e-11
6.66957e-11
-6.17482e-11
7.84846e-11
-5.87526e-11
8.94117e-11
-5.47154e-11
9.92801e-11
-4.97643e-11
1.07933e-10
-4.40564e-11
1.1524e-10
-3.77709e-11
1.2112e-10
-3.10663e-11
1.25603e-10
-2.41765e-11
1.28633e-10
-1.72171e-11
1.30263e-10
-1.03749e-11
1.30568e-10
-3.80465e-12
1.29649e-10
2.37368e-12
1.27617e-10
8.0785e-12
1.24602e-10
1.32318e-11
1.20745e-10
1.77726e-11
1.16186e-10
2.16867e-11
1.11051e-10
2.49616e-11
1.05479e-10
2.76075e-11
9.95932e-11
2.96422e-11
9.3505e-11
3.11109e-11
8.73166e-11
3.20514e-11
8.11156e-11
3.25162e-11
7.49828e-11
3.25548e-11
6.90007e-11
3.22209e-11
6.31957e-11
3.15825e-11
5.76394e-11
3.06787e-11
5.23507e-11
2.957e-11
4.73592e-11
2.82941e-11
4.26801e-11
2.69089e-11
3.83165e-11
2.54404e-11
3.4278e-11
2.39298e-11
3.05647e-11
2.24055e-11
2.71649e-11
2.08903e-11
2.40676e-11
1.94099e-11
2.12633e-11
1.79744e-11
1.8721e-11
1.66078e-11
1.64245e-11
1.53211e-11
1.43686e-11
1.41033e-11
1.25134e-11
1.30018e-11
1.08419e-11
1.20032e-11
9.33407e-12
1.11156e-11
7.97176e-12
1.03439e-11
6.737e-12
9.69113e-12
5.60953e-12
9.15783e-12
4.55822e-12
8.76477e-12
3.51618e-12
8.71974e-12
2.19388e-12
1.02124e-11
1.43959e-11
1.67042e-13
-7.01155e-12
1.15883e-12
-6.98762e-12
2.5804e-12
-4.70285e-12
3.94319e-12
-3.48893e-12
5.0762e-12
-3.11715e-12
5.97785e-12
-2.92392e-12
6.68526e-12
-2.63844e-12
7.22124e-12
-2.18567e-12
7.60331e-12
-1.56991e-12
7.82443e-12
-7.84723e-13
7.87199e-12
1.55143e-13
7.73168e-12
1.24056e-12
7.38232e-12
2.45378e-12
6.80175e-12
3.79565e-12
5.96788e-12
5.24823e-12
4.87076e-12
6.79816e-12
3.48154e-12
8.44066e-12
1.79186e-12
1.01465e-11
-2.29753e-13
1.19078e-11
-2.58031e-12
1.36839e-11
-5.26539e-12
1.54583e-11
-8.28457e-12
1.71848e-11
-1.16351e-11
1.88334e-11
-1.53028e-11
2.03529e-11
-1.92665e-11
2.16935e-11
-2.34962e-11
2.27991e-11
-2.79509e-11
2.36093e-11
-3.2577e-11
2.4061e-11
-3.73079e-11
2.40894e-11
-4.20636e-11
2.36297e-11
-4.67498e-11
2.26189e-11
-5.12616e-11
2.09974e-11
-5.54787e-11
1.87131e-11
-5.92724e-11
1.57245e-11
-6.24986e-11
1.20053e-11
-6.50068e-11
7.54748e-12
-6.66585e-11
2.38578e-12
-6.72872e-11
-3.51577e-12
-6.67618e-11
-1.0018e-11
-6.4953e-11
-1.70497e-11
-6.17551e-11
-2.44857e-11
-5.70942e-11
-3.21683e-11
-5.09304e-11
-3.99165e-11
-4.32616e-11
-4.75176e-11
-3.41424e-11
-5.47525e-11
-2.3667e-11
-6.13867e-11
-1.199e-11
-6.7193e-11
6.80894e-13
-7.19553e-11
1.41221e-11
-7.55129e-11
2.80409e-11
-7.76792e-11
4.21421e-11
-7.83902e-11
5.61187e-11
-7.75904e-11
6.96599e-11
-7.52881e-11
8.24799e-11
-7.15716e-11
9.43133e-11
-6.65498e-11
1.04933e-10
-6.03849e-11
1.14165e-10
-5.32907e-11
1.21869e-10
-4.54776e-11
1.28009e-10
-3.72092e-11
1.32515e-10
-2.86854e-11
1.35425e-10
-2.01286e-11
1.36798e-10
-1.17489e-11
1.36726e-10
-3.73147e-12
1.35333e-10
3.7667e-12
1.32754e-10
1.06554e-11
1.29147e-10
1.6837e-11
1.24665e-10
2.22532e-11
1.19467e-10
2.68818e-11
1.13706e-10
3.07213e-11
1.07534e-10
3.37823e-11
1.01078e-10
3.61016e-11
9.44646e-11
3.77264e-11
8.77975e-11
3.8718e-11
8.11796e-11
3.91377e-11
7.46779e-11
3.905e-11
6.83757e-11
3.85274e-11
6.23169e-11
3.76401e-11
5.65435e-11
3.645e-11
5.10977e-11
3.50178e-11
4.59834e-11
3.34111e-11
4.1219e-11
3.1675e-11
3.68125e-11
2.9854e-11
3.27593e-11
2.79858e-11
2.90528e-11
2.61077e-11
2.56833e-11
2.42558e-11
2.26404e-11
2.24526e-11
1.98933e-11
2.07223e-11
1.74365e-11
1.90686e-11
1.52405e-11
1.75179e-11
1.32697e-11
1.60777e-11
1.15183e-11
1.47559e-11
9.95636e-12
1.35653e-11
8.56423e-12
1.25079e-11
7.32075e-12
1.15869e-11
6.20469e-12
1.08055e-11
5.19712e-12
1.01661e-11
4.26736e-12
9.69629e-12
3.34767e-12
9.63909e-12
2.13066e-12
1.14302e-11
1.65286e-11
2.40747e-13
-7.2511e-12
1.20297e-12
-7.9495e-12
2.5702e-12
-6.07146e-12
3.96123e-12
-4.88226e-12
5.20198e-12
-4.35985e-12
6.25535e-12
-3.97811e-12
7.13218e-12
-3.51529e-12
7.84206e-12
-2.89548e-12
8.38629e-12
-2.11447e-12
8.76089e-12
-1.16001e-12
8.95307e-12
-3.7533e-14
8.94391e-12
1.24971e-12
8.71677e-12
2.68113e-12
8.24915e-12
4.26315e-12
7.51903e-12
5.97766e-12
6.50255e-12
7.81352e-12
5.18024e-12
9.76182e-12
3.52891e-12
1.17967e-11
1.54035e-12
1.3895e-11
-8.21977e-13
1.60441e-11
-3.54699e-12
1.81808e-11
-6.6526e-12
2.02885e-11
-1.0134e-11
2.23145e-11
-1.39828e-11
2.42032e-11
-1.81835e-11
2.58963e-11
-2.27098e-11
2.73272e-11
-2.75236e-11
2.84243e-11
-3.2573e-11
2.91113e-11
-3.77912e-11
2.93094e-11
-4.30963e-11
2.89379e-11
-4.83905e-11
2.7917e-11
-5.35625e-11
2.61734e-11
-5.84786e-11
2.36329e-11
-6.29956e-11
2.02447e-11
-6.6955e-11
1.59671e-11
-7.0188e-11
1.07818e-11
-7.2505e-11
4.70293e-12
-7.37569e-11
-2.26371e-12
-7.37521e-11
-1.00218e-11
-7.23378e-11
-1.8463e-11
-6.93798e-11
-2.74429e-11
-6.47733e-11
-3.67736e-11
-5.84581e-11
-4.62308e-11
-5.04193e-11
-5.55552e-11
-4.07008e-11
-6.44682e-11
-2.94051e-11
-7.26799e-11
-1.67011e-11
-7.98972e-11
-2.8092e-12
-8.5849e-11
1.19734e-11
-9.02975e-11
2.73423e-11
-9.30494e-11
4.29365e-11
-9.39844e-11
5.83867e-11
-9.30408e-11
7.3342e-11
-9.02435e-11
8.74493e-11
-8.56781e-11
1.00398e-10
-7.94991e-11
1.11962e-10
-7.19509e-11
1.21886e-10
-6.32165e-11
1.30094e-10
-5.36884e-11
1.36468e-10
-4.35862e-11
1.41008e-10
-3.32261e-11
1.43742e-10
-2.28633e-11
1.44768e-10
-1.27744e-11
1.44195e-10
-3.15939e-12
1.42193e-10
5.76739e-12
1.38926e-10
1.39199e-11
1.34556e-10
2.12043e-11
1.29297e-10
2.75129e-11
1.23309e-10
3.28703e-11
1.16782e-10
3.72479e-11
1.09872e-10
4.06955e-11
1.02724e-10
4.32511e-11
9.54768e-11
4.49778e-11
8.82393e-11
4.5953e-11
8.1118e-11
4.6262e-11
7.41841e-11
4.59845e-11
6.75098e-11
4.51978e-11
6.11488e-11
4.40021e-11
5.51345e-11
4.24684e-11
4.95005e-11
4.06548e-11
4.42564e-11
3.86607e-11
3.94079e-11
3.65248e-11
3.49523e-11
3.43046e-11
3.08912e-11
3.20435e-11
2.72056e-11
2.97944e-11
2.38853e-11
2.75792e-11
2.09072e-11
2.54334e-11
1.82514e-11
2.33785e-11
1.58895e-11
2.14362e-11
1.37945e-11
1.96142e-11
1.19455e-11
1.79261e-11
1.03293e-11
1.63729e-11
8.9002e-12
1.49929e-11
7.64362e-12
1.37609e-11
6.54102e-12
1.26905e-11
5.56536e-12
1.17828e-11
4.69846e-12
1.10353e-11
3.90938e-12
1.04834e-11
3.13679e-12
1.04096e-11
2.04836e-12
1.25165e-11
1.85802e-11
3.46633e-13
-7.59718e-12
1.35995e-12
-8.96367e-12
2.74067e-12
-7.45394e-12
4.18052e-12
-6.32373e-12
5.51913e-12
-5.69918e-12
6.71144e-12
-5.17038e-12
7.7469e-12
-4.55059e-12
8.62803e-12
-3.77679e-12
9.34007e-12
-2.82691e-12
9.88107e-12
-1.70103e-12
1.02299e-11
-3.85808e-13
1.03792e-11
1.10112e-12
1.02965e-11
2.76375e-12
9.96215e-12
4.59647e-12
9.35193e-12
6.58637e-12
8.43976e-12
8.72462e-12
7.20676e-12
1.09945e-11
5.62119e-12
1.33822e-11
3.65862e-12
1.58568e-11
1.30891e-12
1.8392e-11
-1.45892e-12
2.09467e-11
-4.64796e-12
2.34769e-11
-8.26652e-12
2.59343e-11
-1.2314e-11
2.82533e-11
-1.67792e-11
3.03643e-11
-2.16413e-11
3.21913e-11
-2.68661e-11
3.36505e-11
-3.24047e-11
3.46516e-11
-3.81917e-11
3.50992e-11
-4.41444e-11
3.48943e-11
-5.01616e-11
3.39384e-11
-5.61202e-11
3.2136e-11
-6.18813e-11
2.93972e-11
-6.72811e-11
2.56465e-11
-7.21401e-11
2.08271e-11
-7.62616e-11
1.49037e-11
-7.94414e-11
7.88315e-12
-8.14761e-11
-2.28116e-13
-8.21439e-11
-9.35236e-12
-8.1255e-11
-1.93507e-11
-7.86358e-11
-3.00619e-11
-7.41457e-11
-4.12633e-11
-6.76915e-11
-5.26833e-11
-5.92377e-11
-6.40069e-11
-4.88176e-11
-7.48867e-11
-3.65349e-11
-8.49617e-11
-2.25775e-11
-9.38551e-11
-7.20564e-12
-1.01222e-10
9.25711e-12
-1.06761e-10
2.64248e-11
-1.10218e-10
4.38724e-11
-1.11434e-10
6.11652e-11
-1.10335e-10
7.78589e-11
-1.06938e-10
9.3561e-11
-1.01379e-10
1.07886e-10
-9.38225e-11
1.20525e-10
-8.4592e-11
1.31346e-10
-7.40406e-11
1.40104e-10
-6.24495e-11
1.4674e-10
-5.02232e-11
1.51275e-10
-3.77601e-11
1.53765e-10
-2.53517e-11
1.54314e-10
-1.33223e-11
1.53106e-10
-1.95541e-12
1.50323e-10
8.54771e-12
1.46167e-10
1.80726e-11
1.40882e-10
2.64888e-11
1.34653e-10
3.37426e-11
1.27713e-10
3.98129e-11
1.20248e-10
4.47151e-11
1.12449e-10
4.84985e-11
1.04481e-10
5.12199e-11
9.64763e-11
5.29812e-11
8.8575e-11
5.38555e-11
8.08618e-11
5.39695e-11
7.34344e-11
5.34139e-11
6.63444e-11
5.22906e-11
5.96384e-11
5.07096e-11
5.3373e-11
4.87347e-11
4.75257e-11
4.65043e-11
4.21361e-11
4.40418e-11
3.72031e-11
4.14573e-11
3.27125e-11
3.87947e-11
2.86505e-11
3.61078e-11
2.5002e-11
3.34434e-11
2.17446e-11
3.08386e-11
1.88556e-11
2.8326e-11
1.63052e-11
2.59326e-11
1.40662e-11
2.36738e-11
1.21122e-11
2.15671e-11
1.04122e-11
1.96218e-11
8.93429e-12
1.785e-11
7.6666e-12
1.6262e-11
6.57159e-12
1.48559e-11
5.63093e-12
1.36326e-11
4.81616e-12
1.25956e-11
4.1088e-12
1.17451e-11
3.47866e-12
1.11145e-11
2.86476e-12
1.10266e-11
1.94359e-12
1.34381e-11
2.0524e-11
4.58054e-13
-8.05547e-12
1.56945e-12
-1.00766e-11
3.01952e-12
-8.90532e-12
4.54081e-12
-7.84549e-12
5.99227e-12
-7.15042e-12
7.32527e-12
-6.50312e-12
8.52466e-12
-5.75023e-12
9.57558e-12
-4.82832e-12
1.04685e-11
-3.72002e-12
1.11875e-11
-2.41942e-12
1.17205e-11
-9.1791e-13
1.20401e-11
7.81605e-13
1.21226e-11
2.67988e-12
1.19486e-11
4.76808e-12
1.14864e-11
7.04651e-12
1.0708e-11
9.50241e-12
9.58289e-12
1.21202e-11
8.08568e-12
1.48798e-11
6.17865e-12
1.77631e-11
3.84063e-12
2.07285e-11
1.04674e-12
2.37395e-11
-2.22377e-12
2.67481e-11
-5.97788e-12
2.9691e-11
-1.02318e-11
3.25106e-11
-1.4982e-11
3.51176e-11
-2.02156e-11
3.74272e-11
-2.59004e-11
3.93373e-11
-3.19935e-11
4.07472e-11
-3.84321e-11
4.15411e-11
-4.51342e-11
4.16004e-11
-5.19952e-11
4.08031e-11
-5.88857e-11
3.9029e-11
-6.56523e-11
3.61649e-11
-7.21134e-11
3.21076e-11
-7.80662e-11
2.67798e-11
-8.32866e-11
2.01247e-11
-8.75226e-11
1.21206e-11
-9.05443e-11
2.79523e-12
-9.20829e-11
-7.81259e-12
-9.18905e-11
-1.95423e-11
-8.9745e-11
-3.22071e-11
-8.54601e-11
-4.55474e-11
-7.88992e-11
-5.92426e-11
-6.99946e-11
-7.291e-11
-5.87648e-11
-8.6116e-11
-4.53148e-11
-9.84117e-11
-2.98434e-11
-1.09326e-10
-1.26606e-11
-1.18404e-10
5.8519e-12
-1.25274e-10
2.52325e-11
-1.29602e-10
4.49633e-11
-1.31168e-10
6.45087e-11
-1.29882e-10
8.33557e-11
-1.25785e-10
1.00985e-10
-1.19007e-10
1.17007e-10
-1.09844e-10
1.31047e-10
-9.86333e-11
1.42817e-10
-8.58107e-11
1.52189e-10
-7.18215e-11
1.59106e-10
-5.71406e-11
1.63576e-10
-4.22289e-11
1.65672e-10
-2.74496e-11
1.65619e-10
-1.32689e-11
1.63597e-10
6.51643e-14
1.59816e-10
1.23267e-11
1.54582e-10
2.33047e-11
1.48133e-10
3.29375e-11
1.40736e-10
4.11418e-11
1.3263e-10
4.79212e-11
1.24055e-10
5.32907e-11
1.15207e-10
5.7346e-11
1.06269e-10
6.01594e-11
9.73953e-11
6.18476e-11
8.87195e-11
6.25327e-11
8.03412e-11
6.23488e-11
7.23459e-11
6.14097e-11
6.47877e-11
5.98441e-11
5.77258e-11
5.77716e-11
5.11376e-11
5.53169e-11
4.51e-11
5.25438e-11
3.95677e-11
4.9572e-11
3.4556e-11
4.64706e-11
3.00377e-11
4.33077e-11
2.59988e-11
4.01487e-11
2.24107e-11
3.70352e-11
1.92446e-11
3.40109e-11
1.64635e-11
3.11049e-11
1.40492e-11
2.83512e-11
1.19618e-11
2.57603e-11
1.01683e-11
2.33591e-11
8.64084e-12
2.11492e-11
7.34508e-12
1.91466e-11
6.25627e-12
1.7352e-11
5.34596e-12
1.57655e-11
4.58737e-12
1.43926e-11
3.96053e-12
1.32266e-11
3.43526e-12
1.22695e-11
2.98691e-12
1.15603e-11
2.54488e-12
1.14672e-11
1.80811e-12
1.41771e-11
2.23338e-11
5.67246e-13
-8.62352e-12
1.80617e-12
-1.13166e-11
3.36551e-12
-1.04649e-11
5.00202e-12
-9.48149e-12
6.5891e-12
-8.73691e-12
8.07898e-12
-7.9931e-12
9.44732e-12
-7.11945e-12
1.06858e-11
-6.06769e-12
1.17724e-11
-4.80679e-12
1.26872e-11
-3.33378e-12
1.34183e-11
-1.64913e-12
1.39359e-11
2.62401e-13
1.42116e-11
2.40091e-12
1.42232e-11
4.75318e-12
1.39376e-11
7.33015e-12
1.33222e-11
1.01178e-11
1.23399e-11
1.31033e-11
1.0952e-11
1.6268e-11
9.12982e-12
1.95844e-11
6.83328e-12
2.30239e-11
4.02776e-12
2.65449e-11
6.9519e-13
3.00822e-11
-3.19961e-12
3.35888e-11
-7.66114e-12
3.69756e-11
-1.27128e-11
4.01721e-11
-1.83413e-11
4.30579e-11
-2.45317e-11
4.55297e-11
-3.12416e-11
4.74598e-11
-3.84158e-11
4.87188e-11
-4.59738e-11
4.91616e-11
-5.38089e-11
4.86401e-11
-6.17852e-11
4.70055e-11
-6.97352e-11
4.41138e-11
-7.74615e-11
3.98329e-11
-8.47314e-11
3.40499e-11
-9.12856e-11
2.66804e-11
-9.68391e-11
1.76761e-11
-1.01095e-10
7.05298e-12
-1.0374e-10
-5.16691e-12
-1.04461e-10
-1.88213e-11
-1.02974e-10
-3.36924e-11
-9.90253e-11
-4.94956e-11
-9.2421e-11
-6.58465e-11
-8.30528e-11
-8.22778e-11
-7.09032e-11
-9.82646e-11
-5.60781e-11
-1.13236e-10
-3.87998e-11
-1.26605e-10
-1.9413e-11
-1.37793e-10
1.59652e-12
-1.46286e-10
2.36949e-11
-1.51703e-10
4.62374e-11
-1.53712e-10
6.85708e-11
-1.52215e-10
9.00458e-11
-1.4726e-10
1.10074e-10
-1.39036e-10
1.28085e-10
-1.27854e-10
1.43718e-10
-1.14265e-10
1.56652e-10
-9.87435e-11
1.66726e-10
-8.18939e-11
1.73883e-10
-6.4298e-11
1.78199e-10
-4.65431e-11
1.79778e-10
-2.90293e-11
1.78888e-10
-1.23796e-11
1.75785e-10
3.16778e-12
1.70793e-10
1.73193e-11
1.64201e-10
2.98979e-11
1.56343e-10
4.07937e-11
1.47515e-10
4.99689e-11
1.38042e-10
5.73949e-11
1.28137e-10
6.31952e-11
1.18066e-10
6.74136e-11
1.08004e-10
7.02203e-11
9.81297e-11
7.17206e-11
8.85772e-11
7.20837e-11
7.94435e-11
7.14755e-11
7.08238e-11
7.00316e-11
6.27527e-11
6.79121e-11
5.52766e-11
6.5246e-11
4.84212e-11
6.21754e-11
4.21527e-11
5.88099e-11
3.64876e-11
5.5234e-11
3.1413e-11
5.15483e-11
2.68879e-11
4.78346e-11
2.29056e-11
4.41332e-11
1.93989e-11
4.05375e-11
1.63519e-11
3.70589e-11
1.37192e-11
3.37345e-11
1.14703e-11
3.05991e-11
9.56379e-12
2.76661e-11
7.96656e-12
2.49564e-11
6.63595e-12
2.24812e-11
5.54856e-12
2.02366e-11
4.66482e-12
1.82321e-11
3.96448e-12
1.64677e-11
3.41578e-12
1.49368e-11
2.99431e-12
1.36494e-11
2.67201e-12
1.25963e-11
2.42505e-12
1.18125e-11
2.18812e-12
1.17031e-11
1.65466e-12
1.47099e-11
2.39858e-11
6.7191e-13
-9.29611e-12
2.05713e-12
-1.27018e-11
3.76229e-12
-1.21693e-11
5.54228e-12
-1.12605e-11
7.28685e-12
-1.04811e-11
8.95087e-12
-9.65783e-12
1.05101e-11
-8.68005e-12
1.19442e-11
-7.503e-12
1.32415e-11
-6.10475e-12
1.4381e-11
-4.47405e-12
1.53302e-11
-2.60028e-12
1.60668e-11
-4.77722e-13
1.6569e-11
1.89438e-12
1.67973e-11
4.52146e-12
1.67213e-11
7.40476e-12
1.63018e-11
1.05377e-11
1.54967e-11
1.39093e-11
1.42617e-11
1.75033e-11
1.25507e-11
2.1295e-11
1.03269e-11
2.52472e-11
7.55418e-12
2.93181e-11
4.17179e-12
3.34665e-11
1.60185e-13
3.76033e-11
-4.51977e-12
4.16583e-11
-9.87084e-12
4.55253e-11
-1.59184e-11
4.91072e-11
-2.26479e-11
5.22611e-11
-3.00342e-11
5.48485e-11
-3.80259e-11
5.67132e-11
-4.65481e-11
5.76854e-11
-5.54945e-11
5.75863e-11
-6.47238e-11
5.62331e-11
-7.40567e-11
5.34451e-11
-8.32743e-11
4.90501e-11
-9.21176e-11
4.28944e-11
-1.00289e-10
3.48533e-11
-1.07453e-10
2.48415e-11
-1.13255e-10
1.28557e-11
-1.17316e-10
-1.10428e-12
-1.19231e-10
-1.69058e-11
-1.18641e-10
-3.42814e-11
-1.15213e-10
-5.29238e-11
-1.08673e-10
-7.23854e-11
-9.88492e-11
-9.21016e-11
-8.56817e-11
-1.11431e-10
-6.92559e-11
-1.29662e-10
-4.98227e-11
-1.4604e-10
-2.77857e-11
-1.59832e-10
-3.69752e-12
-1.70376e-10
2.17196e-11
-1.77121e-10
4.77149e-11
-1.79709e-10
7.346e-11
-1.77961e-10
9.81389e-11
-1.71937e-10
1.20996e-10
-1.61892e-10
1.41498e-10
-1.48354e-10
1.59049e-10
-1.31816e-10
1.73291e-10
-1.12986e-10
1.84143e-10
-9.27443e-11
1.91493e-10
-7.16478e-11
1.95502e-10
-5.05482e-11
1.96345e-10
-2.98706e-11
1.94357e-10
-1.03899e-11
1.89893e-10
7.63086e-12
1.83342e-10
2.38709e-11
1.75085e-10
3.81547e-11
1.65509e-10
5.03676e-11
1.54993e-10
6.04789e-11
1.43858e-10
6.85296e-11
1.32418e-10
7.46339e-11
1.20914e-10
7.8921e-11
1.09566e-10
8.1564e-11
9.85517e-11
8.27291e-11
8.80152e-11
8.26239e-11
7.80567e-11
8.14331e-11
6.87424e-11
7.93438e-11
6.01335e-11
7.65221e-11
5.22307e-11
7.31415e-11
4.50588e-11
6.93508e-11
3.86036e-11
6.52673e-11
3.28347e-11
6.10061e-11
2.77241e-11
5.66584e-11
2.3244e-11
5.23143e-11
1.93141e-11
4.80643e-11
1.59312e-11
4.39228e-11
1.3043e-11
3.99425e-11
1.05962e-11
3.61823e-11
8.54963e-12
3.26475e-11
6.85928e-12
2.93584e-11
5.48465e-12
2.63323e-11
4.3909e-12
2.35723e-11
3.54055e-12
2.109e-11
2.89624e-12
1.88728e-11
2.43606e-12
1.6928e-11
2.12165e-12