/*--------------------------------*- C++ -*----------------------------------*\
| =========                 |                                                 |
| \\      /  F ield         | OpenFOAM: The Open Source CFD Toolbox           |
|  \\    /   O peration     | Version:  2312                                  |
|   \\  /    A nd           | Website:  www.openfoam.com                      |
|    \\/     M anipulation  |                                                 |
\*---------------------------------------------------------------------------*/
FoamFile
{
    version     2.0;
    format      ascii;
    arch        "LSB;label=32;scalar=64";
    class       volVectorField;
    location    "0.25";
    object      U;
}
// * * * * * * * * * * * * * * * * * * * * * * * * * * * * * * * * * * * * * //

dimensions      [0 1 -1 0 0 0 0];

internalField   nonuniform List<vector> 
10000
(
(2.85177e-07 1.72988e-07 0)
(-9.18814e-08 5.00648e-07 0)
(-7.86244e-07 2.54828e-07 0)
(-1.11298e-06 -1.508e-08 0)
(-9.90392e-07 -1.3061e-07 0)
(-7.07294e-07 -1.67659e-07 0)
(-3.73011e-07 -1.60342e-07 0)
(-5.76059e-08 -1.4153e-07 0)
(2.15867e-07 -1.22207e-07 0)
(4.41034e-07 -1.0577e-07 0)
(6.19866e-07 -9.06677e-08 0)
(7.54834e-07 -7.73829e-08 0)
(8.47643e-07 -6.76171e-08 0)
(8.99115e-07 -5.791e-08 0)
(9.08472e-07 -4.93288e-08 0)
(8.7494e-07 -4.16088e-08 0)
(7.96652e-07 -3.38273e-08 0)
(6.72884e-07 -2.62095e-08 0)
(5.02933e-07 -1.80088e-08 0)
(2.86486e-07 -9.62371e-09 0)
(2.4064e-08 -1.80687e-09 0)
(-2.8412e-07 4.71841e-09 0)
(-6.3542e-07 1.02521e-08 0)
(-1.025e-06 1.41504e-08 0)
(-1.44571e-06 1.59281e-08 0)
(-1.88855e-06 1.43485e-08 0)
(-2.34385e-06 8.74156e-09 0)
(-2.79846e-06 -5.64323e-10 0)
(-3.23704e-06 -1.52879e-08 0)
(-3.64283e-06 -3.58019e-08 0)
(-3.99682e-06 -6.29869e-08 0)
(-4.28152e-06 -9.67133e-08 0)
(-4.47216e-06 -1.34499e-07 0)
(-4.5433e-06 -1.80009e-07 0)
(-4.48041e-06 -2.33333e-07 0)
(-4.25258e-06 -2.90141e-07 0)
(-3.83848e-06 -3.58753e-07 0)
(-3.22897e-06 -4.34671e-07 0)
(-2.41258e-06 -5.15279e-07 0)
(-1.35648e-06 -5.90356e-07 0)
(-5.10828e-08 -6.74662e-07 0)
(1.48995e-06 -7.57786e-07 0)
(3.27567e-06 -8.37664e-07 0)
(5.29757e-06 -9.13231e-07 0)
(7.54396e-06 -9.85883e-07 0)
(9.99529e-06 -1.04633e-06 0)
(1.26227e-05 -1.09672e-06 0)
(1.53945e-05 -1.13411e-06 0)
(1.82735e-05 -1.15725e-06 0)
(2.12167e-05 -1.16442e-06 0)
(2.41786e-05 -1.15512e-06 0)
(2.71132e-05 -1.12934e-06 0)
(2.99731e-05 -1.08657e-06 0)
(3.2712e-05 -1.02733e-06 0)
(3.52867e-05 -9.5346e-07 0)
(3.76578e-05 -8.66603e-07 0)
(3.9792e-05 -7.68752e-07 0)
(4.16595e-05 -6.58813e-07 0)
(4.32372e-05 -5.45023e-07 0)
(4.45131e-05 -4.26531e-07 0)
(4.54799e-05 -3.06341e-07 0)
(4.61347e-05 -1.86829e-07 0)
(4.64819e-05 -6.94846e-08 0)
(4.65328e-05 4.34013e-08 0)
(4.63034e-05 1.5066e-07 0)
(4.58124e-05 2.50932e-07 0)
(4.50826e-05 3.42426e-07 0)
(4.41387e-05 4.24546e-07 0)
(4.30072e-05 4.97469e-07 0)
(4.17147e-05 5.6102e-07 0)
(4.02874e-05 6.15073e-07 0)
(3.87513e-05 6.59909e-07 0)
(3.71309e-05 6.9605e-07 0)
(3.54491e-05 7.24267e-07 0)
(3.37274e-05 7.45469e-07 0)
(3.19855e-05 7.60383e-07 0)
(3.02397e-05 7.6864e-07 0)
(2.85027e-05 7.7079e-07 0)
(2.67838e-05 7.69734e-07 0)
(2.5098e-05 7.66484e-07 0)
(2.34511e-05 7.58062e-07 0)
(2.18463e-05 7.48313e-07 0)
(2.02896e-05 7.36382e-07 0)
(1.87816e-05 7.2313e-07 0)
(1.73245e-05 7.1073e-07 0)
(1.59169e-05 6.97577e-07 0)
(1.456e-05 6.85366e-07 0)
(1.32568e-05 6.71821e-07 0)
(1.20064e-05 6.57443e-07 0)
(1.08085e-05 6.42149e-07 0)
(9.66224e-06 6.2548e-07 0)
(8.5653e-06 6.10815e-07 0)
(7.51375e-06 5.97712e-07 0)
(6.49928e-06 5.87119e-07 0)
(5.51227e-06 5.80169e-07 0)
(4.54535e-06 5.77252e-07 0)
(3.59199e-06 5.76658e-07 0)
(2.64551e-06 5.80362e-07 0)
(1.69409e-06 5.97295e-07 0)
(6.093e-07 6.13258e-07 0)
(6.36571e-07 -5.52321e-07 0)
(1.31564e-06 7.11925e-07 0)
(1.14248e-06 7.75179e-07 0)
(6.74784e-07 1.92459e-07 0)
(5.25097e-07 -2.63612e-07 0)
(5.2726e-07 -4.58545e-07 0)
(6.43805e-07 -4.90594e-07 0)
(7.93198e-07 -4.49032e-07 0)
(9.33338e-07 -3.81277e-07 0)
(1.03908e-06 -3.05837e-07 0)
(1.09807e-06 -2.28618e-07 0)
(1.09775e-06 -1.51351e-07 0)
(1.03424e-06 -7.47488e-08 0)
(9.02931e-07 2.93491e-09 0)
(6.95766e-07 7.94035e-08 0)
(4.10059e-07 1.5881e-07 0)
(4.01493e-08 2.41339e-07 0)
(-4.16058e-07 3.25949e-07 0)
(-9.60318e-07 4.12628e-07 0)
(-1.59448e-06 5.00308e-07 0)
(-2.31743e-06 5.8696e-07 0)
(-3.12708e-06 6.69847e-07 0)
(-4.01919e-06 7.46632e-07 0)
(-4.98704e-06 8.14232e-07 0)
(-6.02042e-06 8.69303e-07 0)
(-7.10628e-06 9.07709e-07 0)
(-8.2284e-06 9.25498e-07 0)
(-9.36893e-06 9.19587e-07 0)
(-1.05059e-05 8.85745e-07 0)
(-1.1613e-05 8.20691e-07 0)
(-1.26616e-05 7.21348e-07 0)
(-1.36217e-05 5.85427e-07 0)
(-1.44595e-05 4.14482e-07 0)
(-1.51404e-05 2.03545e-07 0)
(-1.56311e-05 -4.72923e-08 0)
(-1.58947e-05 -3.32614e-07 0)
(-1.58972e-05 -6.59902e-07 0)
(-1.56082e-05 -1.02068e-06 0)
(-1.5e-05 -1.40903e-06 0)
(-1.40455e-05 -1.80807e-06 0)
(-1.27275e-05 -2.22931e-06 0)
(-1.10383e-05 -2.65345e-06 0)
(-8.97479e-06 -3.07079e-06 0)
(-6.55047e-06 -3.4716e-06 0)
(-3.77237e-06 -3.84406e-06 0)
(-6.67252e-07 -4.1772e-06 0)
(2.71884e-06 -4.46176e-06 0)
(6.34431e-06 -4.68551e-06 0)
(1.01546e-05 -4.84048e-06 0)
(1.40875e-05 -4.92131e-06 0)
(1.80758e-05 -4.92177e-06 0)
(2.20526e-05 -4.84262e-06 0)
(2.59488e-05 -4.68351e-06 0)
(2.96949e-05 -4.44709e-06 0)
(3.3227e-05 -4.13991e-06 0)
(3.64881e-05 -3.77e-06 0)
(3.94337e-05 -3.34648e-06 0)
(4.20139e-05 -2.8809e-06 0)
(4.41958e-05 -2.38339e-06 0)
(4.59687e-05 -1.86857e-06 0)
(4.73193e-05 -1.34647e-06 0)
(4.82459e-05 -8.28802e-07 0)
(4.87554e-05 -3.25593e-07 0)
(4.88652e-05 1.56862e-07 0)
(4.86e-05 6.09499e-07 0)
(4.79871e-05 1.02446e-06 0)
(4.706e-05 1.39834e-06 0)
(4.58563e-05 1.72798e-06 0)
(4.44153e-05 2.01241e-06 0)
(4.27745e-05 2.2509e-06 0)
(4.0971e-05 2.44423e-06 0)
(3.90422e-05 2.59431e-06 0)
(3.70233e-05 2.70399e-06 0)
(3.49472e-05 2.77631e-06 0)
(3.2843e-05 2.81528e-06 0)
(3.07369e-05 2.82488e-06 0)
(2.86516e-05 2.80858e-06 0)
(2.66075e-05 2.77e-06 0)
(2.46178e-05 2.71477e-06 0)
(2.26964e-05 2.64841e-06 0)
(2.08535e-05 2.56825e-06 0)
(1.90941e-05 2.48235e-06 0)
(1.74231e-05 2.39125e-06 0)
(1.58447e-05 2.29904e-06 0)
(1.43588e-05 2.20673e-06 0)
(1.29639e-05 2.11353e-06 0)
(1.16598e-05 2.0195e-06 0)
(1.0447e-05 1.9248e-06 0)
(9.32252e-06 1.82818e-06 0)
(8.27844e-06 1.73353e-06 0)
(7.31248e-06 1.64266e-06 0)
(6.41897e-06 1.56e-06 0)
(5.58868e-06 1.48934e-06 0)
(4.8137e-06 1.4321e-06 0)
(4.08615e-06 1.38962e-06 0)
(3.39718e-06 1.36059e-06 0)
(2.73732e-06 1.34308e-06 0)
(2.09495e-06 1.35093e-06 0)
(1.45034e-06 1.47456e-06 0)
(5.87427e-07 1.69583e-06 0)
(4.06276e-07 -1.63971e-06 0)
(1.4196e-06 6.19264e-09 0)
(2.05928e-06 8.62515e-07 0)
(2.0094e-06 5.45192e-07 0)
(1.92789e-06 1.6681e-08 0)
(1.83279e-06 -3.03706e-07 0)
(1.80264e-06 -4.28965e-07 0)
(1.81089e-06 -4.33248e-07 0)
(1.82533e-06 -3.72595e-07 0)
(1.81926e-06 -2.75448e-07 0)
(1.77507e-06 -1.56332e-07 0)
(1.67741e-06 -2.44252e-08 0)
(1.51511e-06 1.20351e-07 0)
(1.27665e-06 2.72961e-07 0)
(9.56308e-07 4.33603e-07 0)
(5.49934e-07 6.01685e-07 0)
(4.62786e-08 7.76421e-07 0)
(-5.5696e-07 9.57342e-07 0)
(-1.26069e-06 1.14147e-06 0)
(-2.06606e-06 1.32582e-06 0)
(-2.97207e-06 1.50811e-06 0)
(-3.97644e-06 1.68334e-06 0)
(-5.07377e-06 1.84608e-06 0)
(-6.25621e-06 1.99094e-06 0)
(-7.51294e-06 2.11148e-06 0)
(-8.83041e-06 2.20098e-06 0)
(-1.01919e-05 2.252e-06 0)
(-1.1578e-05 2.25696e-06 0)
(-1.29656e-05 2.20966e-06 0)
(-1.43272e-05 2.10334e-06 0)
(-1.56326e-05 1.932e-06 0)
(-1.68488e-05 1.69033e-06 0)
(-1.79401e-05 1.37509e-06 0)
(-1.88687e-05 9.82988e-07 0)
(-1.95961e-05 5.13922e-07 0)
(-2.00831e-05 -2.9711e-08 0)
(-2.02901e-05 -6.4578e-07 0)
(-2.01809e-05 -1.32689e-06 0)
(-1.97225e-05 -2.06366e-06 0)
(-1.88864e-05 -2.84273e-06 0)
(-1.76507e-05 -3.65234e-06 0)
(-1.60013e-05 -4.47354e-06 0)
(-1.39344e-05 -5.28813e-06 0)
(-1.14574e-05 -6.07491e-06 0)
(-8.58471e-06 -6.80618e-06 0)
(-5.34561e-06 -7.46927e-06 0)
(-1.77987e-06 -8.04072e-06 0)
(2.064e-06 -8.498e-06 0)
(6.12301e-06 -8.8247e-06 0)
(1.03309e-05 -9.01067e-06 0)
(1.46124e-05 -9.04239e-06 0)
(1.88909e-05 -8.9224e-06 0)
(2.30922e-05 -8.65005e-06 0)
(2.71383e-05 -8.23136e-06 0)
(3.09573e-05 -7.6779e-06 0)
(3.44864e-05 -7.00499e-06 0)
(3.76716e-05 -6.23045e-06 0)
(4.04664e-05 -5.37855e-06 0)
(4.2833e-05 -4.46496e-06 0)
(4.47536e-05 -3.5166e-06 0)
(4.622e-05 -2.55632e-06 0)
(4.72291e-05 -1.60508e-06 0)
(4.77936e-05 -6.80947e-07 0)
(4.79319e-05 2.0113e-07 0)
(4.7667e-05 1.02645e-06 0)
(4.70339e-05 1.7783e-06 0)
(4.60712e-05 2.45324e-06 0)
(4.48186e-05 3.04646e-06 0)
(4.3319e-05 3.55452e-06 0)
(4.16131e-05 3.97625e-06 0)
(3.97415e-05 4.31385e-06 0)
(3.77436e-05 4.57154e-06 0)
(3.56568e-05 4.75378e-06 0)
(3.35157e-05 4.86723e-06 0)
(3.13516e-05 4.91847e-06 0)
(2.91923e-05 4.91395e-06 0)
(2.70612e-05 4.86258e-06 0)
(2.49796e-05 4.77147e-06 0)
(2.29637e-05 4.64555e-06 0)
(2.10264e-05 4.49673e-06 0)
(1.9179e-05 4.32669e-06 0)
(1.74292e-05 4.1438e-06 0)
(1.57821e-05 3.95295e-06 0)
(1.42408e-05 3.76126e-06 0)
(1.28054e-05 3.56888e-06 0)
(1.14749e-05 3.37936e-06 0)
(1.02489e-05 3.18803e-06 0)
(9.12314e-06 3.00299e-06 0)
(8.09072e-06 2.82035e-06 0)
(7.14356e-06 2.64397e-06 0)
(6.27375e-06 2.47866e-06 0)
(5.47731e-06 2.32693e-06 0)
(4.74678e-06 2.1937e-06 0)
(4.07425e-06 2.08192e-06 0)
(3.45383e-06 1.99301e-06 0)
(2.87763e-06 1.92516e-06 0)
(2.33657e-06 1.87792e-06 0)
(1.81938e-06 1.87753e-06 0)
(1.30369e-06 2.10008e-06 0)
(5.69931e-07 2.62405e-06 0)
(1.34956e-07 -2.34697e-06 0)
(8.32656e-07 -9.91022e-07 0)
(1.74391e-06 2.59196e-07 0)
(2.07535e-06 3.15849e-07 0)
(2.25839e-06 -3.88362e-08 0)
(2.30347e-06 -3.20155e-07 0)
(2.32018e-06 -4.43013e-07 0)
(2.33061e-06 -4.44875e-07 0)
(2.32906e-06 -3.67656e-07 0)
(2.30189e-06 -2.38226e-07 0)
(2.23347e-06 -7.14492e-08 0)
(2.11069e-06 1.21902e-07 0)
(1.92336e-06 3.36768e-07 0)
(1.65993e-06 5.68669e-07 0)
(1.31201e-06 8.20116e-07 0)
(8.72674e-07 1.08342e-06 0)
(3.34592e-07 1.35786e-06 0)
(-3.06822e-07 1.64116e-06 0)
(-1.05511e-06 1.93069e-06 0)
(-1.90991e-06 2.22024e-06 0)
(-2.87031e-06 2.50544e-06 0)
(-3.93541e-06 2.7795e-06 0)
(-5.09945e-06 3.03493e-06 0)
(-6.35484e-06 3.26351e-06 0)
(-7.69119e-06 3.45581e-06 0)
(-9.0953e-06 3.60185e-06 0)
(-1.05508e-05 3.69101e-06 0)
(-1.20378e-05 3.71241e-06 0)
(-1.35329e-05 3.6558e-06 0)
(-1.50086e-05 3.51109e-06 0)
(-1.6434e-05 3.26891e-06 0)
(-1.77747e-05 2.92099e-06 0)
(-1.89935e-05 2.46128e-06 0)
(-2.00502e-05 1.88533e-06 0)
(-2.09035e-05 1.19161e-06 0)
(-2.15111e-05 3.82346e-07 0)
(-2.18308e-05 -5.37593e-07 0)
(-2.18215e-05 -1.56006e-06 0)
(-2.14464e-05 -2.67087e-06 0)
(-2.06728e-05 -3.85209e-06 0)
(-1.94751e-05 -5.08145e-06 0)
(-1.78369e-05 -6.33322e-06 0)
(-1.5751e-05 -7.5789e-06 0)
(-1.32213e-05 -8.78576e-06 0)
(-1.02632e-05 -9.91835e-06 0)
(-6.90861e-06 -1.09446e-05 0)
(-3.19547e-06 -1.18309e-05 0)
(8.24708e-07 -1.25477e-05 0)
(5.08155e-06 -1.30688e-05 0)
(9.50579e-06 -1.33739e-05 0)
(1.40129e-05 -1.34455e-05 0)
(1.85183e-05 -1.32859e-05 0)
(2.29444e-05 -1.28933e-05 0)
(2.72041e-05 -1.22779e-05 0)
(3.12195e-05 -1.14576e-05 0)
(3.49231e-05 -1.04558e-05 0)
(3.82576e-05 -9.30087e-06 0)
(4.11722e-05 -8.02327e-06 0)
(4.36288e-05 -6.662e-06 0)
(4.56078e-05 -5.24481e-06 0)
(4.71009e-05 -3.81245e-06 0)
(4.81112e-05 -2.39473e-06 0)
(4.86517e-05 -1.0204e-06 0)
(4.87443e-05 2.83961e-07 0)
(4.84133e-05 1.49844e-06 0)
(4.76992e-05 2.6072e-06 0)
(4.66486e-05 3.59833e-06 0)
(4.53014e-05 4.46487e-06 0)
(4.37026e-05 5.20248e-06 0)
(4.18968e-05 5.81072e-06 0)
(3.99278e-05 6.2928e-06 0)
(3.7836e-05 6.65543e-06 0)
(3.56611e-05 6.90598e-06 0)
(3.3439e-05 7.05447e-06 0)
(3.12e-05 7.11117e-06 0)
(2.89737e-05 7.08504e-06 0)
(2.67851e-05 6.99106e-06 0)
(2.4652e-05 6.83827e-06 0)
(2.25946e-05 6.63567e-06 0)
(2.06257e-05 6.39757e-06 0)
(1.87537e-05 6.13157e-06 0)
(1.69883e-05 5.84617e-06 0)
(1.5335e-05 5.54853e-06 0)
(1.37955e-05 5.2463e-06 0)
(1.2369e-05 4.94428e-06 0)
(1.10505e-05 4.64553e-06 0)
(9.84222e-06 4.35214e-06 0)
(8.7404e-06 4.06702e-06 0)
(7.73135e-06 3.79246e-06 0)
(6.80986e-06 3.53158e-06 0)
(5.96857e-06 3.28956e-06 0)
(5.20128e-06 3.06999e-06 0)
(4.50119e-06 2.87487e-06 0)
(3.86117e-06 2.7079e-06 0)
(3.27441e-06 2.57038e-06 0)
(2.7325e-06 2.46225e-06 0)
(2.22676e-06 2.38448e-06 0)
(1.74664e-06 2.37728e-06 0)
(1.26532e-06 2.70052e-06 0)
(5.63989e-07 3.53513e-06 0)
(2.01377e-08 -2.61222e-06 0)
(3.79634e-07 -1.66556e-06 0)
(1.22112e-06 -3.68434e-07 0)
(1.72501e-06 -5.63166e-08 0)
(2.10188e-06 -2.12742e-07 0)
(2.3045e-06 -3.98109e-07 0)
(2.43507e-06 -4.80272e-07 0)
(2.52016e-06 -4.58044e-07 0)
(2.56847e-06 -3.53743e-07 0)
(2.57601e-06 -1.87853e-07 0)
(2.53377e-06 2.53023e-08 0)
(2.43043e-06 2.78349e-07 0)
(2.25707e-06 5.63021e-07 0)
(2.00696e-06 8.76345e-07 0)
(1.66929e-06 1.21565e-06 0)
(1.23543e-06 1.57563e-06 0)
(6.98949e-07 1.95167e-06 0)
(5.55624e-08 2.34167e-06 0)
(-6.99173e-07 2.73977e-06 0)
(-1.56746e-06 3.13923e-06 0)
(-2.54809e-06 3.53339e-06 0)
(-3.64101e-06 3.91296e-06 0)
(-4.84148e-06 4.26825e-06 0)
(-6.14289e-06 4.58816e-06 0)
(-7.53575e-06 4.86032e-06 0)
(-9.00743e-06 5.07145e-06 0)
(-1.0542e-05 5.20755e-06 0)
(-1.21199e-05 5.25414e-06 0)
(-1.37172e-05 5.19685e-06 0)
(-1.53062e-05 5.02165e-06 0)
(-1.68547e-05 4.71555e-06 0)
(-1.83269e-05 4.26719e-06 0)
(-1.96832e-05 3.66747e-06 0)
(-2.08811e-05 2.90949e-06 0)
(-2.18755e-05 1.98999e-06 0)
(-2.26201e-05 9.10478e-07 0)
(-2.30692e-05 -3.22701e-07 0)
(-2.31765e-05 -1.70074e-06 0)
(-2.28987e-05 -3.20372e-06 0)
(-2.21984e-05 -4.80841e-06 0)
(-2.10456e-05 -6.48551e-06 0)
(-1.94193e-05 -8.19962e-06 0)
(-1.73084e-05 -9.9102e-06 0)
(-1.47132e-05 -1.15725e-05 0)
(-1.16486e-05 -1.31397e-05 0)
(-8.14582e-06 -1.45635e-05 0)
(-4.24758e-06 -1.57967e-05 0)
(-1.00746e-08 -1.68003e-05 0)
(4.49373e-06 -1.75362e-05 0)
(9.18818e-06 -1.79745e-05 0)
(1.39747e-05 -1.80969e-05 0)
(1.876e-05 -1.78962e-05 0)
(2.34613e-05 -1.73742e-05 0)
(2.79797e-05 -1.65452e-05 0)
(3.22294e-05 -1.54339e-05 0)
(3.61363e-05 -1.40725e-05 0)
(3.96386e-05 -1.25011e-05 0)
(4.26788e-05 -1.07681e-05 0)
(4.52215e-05 -8.92011e-06 0)
(4.72465e-05 -6.99825e-06 0)
(4.87436e-05 -5.06213e-06 0)
(4.97219e-05 -3.14949e-06 0)
(5.01971e-05 -1.30115e-06 0)
(5.01966e-05 4.48012e-07 0)
(4.97545e-05 2.06999e-06 0)
(4.89141e-05 3.54816e-06 0)
(4.77229e-05 4.86306e-06 0)
(4.62284e-05 6.00604e-06 0)
(4.44802e-05 6.97364e-06 0)
(4.25268e-05 7.76563e-06 0)
(4.04154e-05 8.38798e-06 0)
(3.81898e-05 8.84897e-06 0)
(3.58905e-05 9.16065e-06 0)
(3.35549e-05 9.33484e-06 0)
(3.12136e-05 9.38646e-06 0)
(2.88989e-05 9.33059e-06 0)
(2.66348e-05 9.18387e-06 0)
(2.44369e-05 8.95819e-06 0)
(2.23276e-05 8.67207e-06 0)
(2.03193e-05 8.33633e-06 0)
(1.84182e-05 7.96445e-06 0)
(1.66324e-05 7.56772e-06 0)
(1.49669e-05 7.15503e-06 0)
(1.34235e-05 6.73433e-06 0)
(1.19988e-05 6.31448e-06 0)
(1.06893e-05 5.90036e-06 0)
(9.49348e-06 5.50061e-06 0)
(8.40505e-06 5.11198e-06 0)
(7.4149e-06 4.74285e-06 0)
(6.51584e-06 4.39639e-06 0)
(5.69938e-06 4.07804e-06 0)
(4.95851e-06 3.78923e-06 0)
(4.28693e-06 3.53194e-06 0)
(3.67783e-06 3.30879e-06 0)
(3.12352e-06 3.12143e-06 0)
(2.61419e-06 2.97122e-06 0)
(2.14008e-06 2.86288e-06 0)
(1.69238e-06 2.85135e-06 0)
(1.24011e-06 3.27998e-06 0)
(5.60227e-07 4.43678e-06 0)
(-1.81927e-08 -2.72053e-06 0)
(1.81247e-07 -2.19775e-06 0)
(8.93974e-07 -1.02315e-06 0)
(1.44081e-06 -5.81999e-07 0)
(1.91875e-06 -5.80334e-07 0)
(2.23983e-06 -6.46859e-07 0)
(2.4741e-06 -6.50829e-07 0)
(2.64404e-06 -5.70848e-07 0)
(2.75954e-06 -4.1497e-07 0)
(2.81984e-06 -1.95492e-07 0)
(2.82136e-06 7.77265e-08 0)
(2.75556e-06 3.97851e-07 0)
(2.61549e-06 7.60425e-07 0)
(2.3944e-06 1.15992e-06 0)
(2.08105e-06 1.59156e-06 0)
(1.66622e-06 2.05267e-06 0)
(1.14558e-06 2.53568e-06 0)
(5.13295e-07 3.03865e-06 0)
(-2.38699e-07 3.55088e-06 0)
(-1.11065e-06 4.06712e-06 0)
(-2.10397e-06 4.57945e-06 0)
(-3.2205e-06 5.07429e-06 0)
(-4.45606e-06 5.54024e-06 0)
(-5.80557e-06 5.96323e-06 0)
(-7.26069e-06 6.32787e-06 0)
(-8.8098e-06 6.61744e-06 0)
(-1.04377e-05 6.81413e-06 0)
(-1.21251e-05 6.89948e-06 0)
(-1.3848e-05 6.85486e-06 0)
(-1.55779e-05 6.66201e-06 0)
(-1.72812e-05 6.30373e-06 0)
(-1.892e-05 5.76469e-06 0)
(-2.04525e-05 5.03137e-06 0)
(-2.18328e-05 4.09387e-06 0)
(-2.30113e-05 2.94704e-06 0)
(-2.3936e-05 1.5906e-06 0)
(-2.45572e-05 3.12741e-08 0)
(-2.48205e-05 -1.71855e-06 0)
(-2.46743e-05 -3.63688e-06 0)
(-2.40765e-05 -5.69472e-06 0)
(-2.29893e-05 -7.85482e-06 0)
(-2.13849e-05 -1.00712e-05 0)
(-1.92468e-05 -1.22904e-05 0)
(-1.65722e-05 -1.44548e-05 0)
(-1.33734e-05 -1.65023e-05 0)
(-9.6816e-06 -1.83696e-05 0)
(-5.54424e-06 -1.99939e-05 0)
(-1.02208e-06 -2.13197e-05 0)
(3.80559e-06 -2.22987e-05 0)
(8.84934e-06 -2.28892e-05 0)
(1.40019e-05 -2.30707e-05 0)
(1.91586e-05 -2.28255e-05 0)
(2.422e-05 -2.21597e-05 0)
(2.90762e-05 -2.10933e-05 0)
(3.36311e-05 -1.96584e-05 0)
(3.78016e-05 -1.78981e-05 0)
(4.15143e-05 -1.5867e-05 0)
(4.47119e-05 -1.363e-05 0)
(4.73631e-05 -1.12432e-05 0)
(4.94358e-05 -8.77794e-06 0)
(5.09248e-05 -6.29311e-06 0)
(5.1852e-05 -3.84641e-06 0)
(5.22334e-05 -1.48878e-06 0)
(5.21037e-05 7.34873e-07 0)
(5.15055e-05 2.79017e-06 0)
(5.04877e-05 4.65182e-06 0)
(4.91051e-05 6.30009e-06 0)
(4.74135e-05 7.72438e-06 0)
(4.54663e-05 8.92109e-06 0)
(4.33176e-05 9.89229e-06 0)
(4.10193e-05 1.0647e-05 0)
(3.86182e-05 1.11961e-05 0)
(3.6157e-05 1.15555e-05 0)
(3.36747e-05 1.17412e-05 0)
(3.12048e-05 1.1774e-05 0)
(2.87786e-05 1.16742e-05 0)
(2.64177e-05 1.1459e-05 0)
(2.41423e-05 1.11483e-05 0)
(2.19716e-05 1.07627e-05 0)
(1.99137e-05 1.03164e-05 0)
(1.79778e-05 9.82701e-06 0)
(1.61691e-05 9.30685e-06 0)
(1.449e-05 8.7688e-06 0)
(1.29425e-05 8.2229e-06 0)
(1.15231e-05 7.67893e-06 0)
(1.02263e-05 7.1464e-06 0)
(9.04603e-06 6.63169e-06 0)
(7.97758e-06 6.13792e-06 0)
(7.01304e-06 5.67259e-06 0)
(6.14374e-06 5.23562e-06 0)
(5.36043e-06 4.83664e-06 0)
(4.6536e-06 4.47596e-06 0)
(4.01797e-06 4.155e-06 0)
(3.44655e-06 3.87557e-06 0)
(2.93161e-06 3.63895e-06 0)
(2.46341e-06 3.44659e-06 0)
(2.03109e-06 3.30627e-06 0)
(1.62298e-06 3.29127e-06 0)
(1.20741e-06 3.83055e-06 0)
(5.5602e-07 5.32482e-06 0)
(-1.19677e-08 -2.77614e-06 0)
(1.50481e-07 -2.61064e-06 0)
(7.67657e-07 -1.6067e-06 0)
(1.31495e-06 -1.12061e-06 0)
(1.83612e-06 -1.00734e-06 0)
(2.23433e-06 -9.71958e-07 0)
(2.5516e-06 -8.95552e-07 0)
(2.79789e-06 -7.5032e-07 0)
(2.98093e-06 -5.3464e-07 0)
(3.10122e-06 -2.54029e-07 0)
(3.15585e-06 8.56374e-08 0)
(3.13874e-06 4.79103e-07 0)
(3.04198e-06 9.22967e-07 0)
(2.85835e-06 1.41172e-06 0)
(2.57977e-06 1.94063e-06 0)
(2.19478e-06 2.50636e-06 0)
(1.69762e-06 3.10355e-06 0)
(1.08085e-06 3.72426e-06 0)
(3.36755e-07 4.36068e-06 0)
(-5.34056e-07 5.00366e-06 0)
(-1.53864e-06 5.6443e-06 0)
(-2.68036e-06 6.26605e-06 0)
(-3.95492e-06 6.85651e-06 0)
(-5.35966e-06 7.39773e-06 0)
(-6.8877e-06 7.87117e-06 0)
(-8.52882e-06 8.25642e-06 0)
(-1.02689e-05 8.53161e-06 0)
(-1.2089e-05 8.6739e-06 0)
(-1.39653e-05 8.66002e-06 0)
(-1.58684e-05 8.46688e-06 0)
(-1.77636e-05 8.07216e-06 0)
(-1.96112e-05 7.45518e-06 0)
(-2.13662e-05 6.59761e-06 0)
(-2.29778e-05 5.48577e-06 0)
(-2.43914e-05 4.11105e-06 0)
(-2.55486e-05 2.47079e-06 0)
(-2.63912e-05 5.70219e-07 0)
(-2.68577e-05 -1.57115e-06 0)
(-2.68879e-05 -3.93461e-06 0)
(-2.64294e-05 -6.48332e-06 0)
(-2.54352e-05 -9.17124e-06 0)
(-2.38681e-05 -1.19414e-05 0)
(-2.1705e-05 -1.47271e-05 0)
(-1.89378e-05 -1.74547e-05 0)
(-1.55758e-05 -2.00444e-05 0)
(-1.16494e-05 -2.2415e-05 0)
(-7.20914e-06 -2.44852e-05 0)
(-2.32572e-06 -2.61817e-05 0)
(2.91404e-06 -2.74422e-05 0)
(8.40664e-06 -2.82113e-05 0)
(1.40296e-05 -2.84587e-05 0)
(1.96631e-05 -2.81656e-05 0)
(2.51866e-05 -2.73368e-05 0)
(3.04751e-05 -2.60015e-05 0)
(3.54197e-05 -2.4199e-05 0)
(3.99235e-05 -2.1987e-05 0)
(4.39033e-05 -1.94374e-05 0)
(4.73e-05 -1.66297e-05 0)
(5.00715e-05 -1.36462e-05 0)
(5.21953e-05 -1.05756e-05 0)
(5.36745e-05 -7.48396e-06 0)
(5.45261e-05 -4.45151e-06 0)
(5.47789e-05 -1.54159e-06 0)
(5.44768e-05 1.1904e-06 0)
(5.36733e-05 3.70383e-06 0)
(5.24264e-05 5.96833e-06 0)
(5.07984e-05 7.96053e-06 0)
(4.8853e-05 9.67e-06 0)
(4.66523e-05 1.10939e-05 0)
(4.42573e-05 1.22374e-05 0)
(4.17244e-05 1.31124e-05 0)
(3.91037e-05 1.37349e-05 0)
(3.64411e-05 1.4125e-05 0)
(3.3779e-05 1.43045e-05 0)
(3.1152e-05 1.42988e-05 0)
(2.85889e-05 1.41336e-05 0)
(2.61133e-05 1.38308e-05 0)
(2.37443e-05 1.34177e-05 0)
(2.14986e-05 1.29133e-05 0)
(1.93856e-05 1.23404e-05 0)
(1.74101e-05 1.17192e-05 0)
(1.55751e-05 1.1064e-05 0)
(1.38835e-05 1.03895e-05 0)
(1.2334e-05 9.70943e-06 0)
(1.09227e-05 9.03539e-06 0)
(9.64283e-06 8.37765e-06 0)
(8.48626e-06 7.74417e-06 0)
(7.44768e-06 7.14026e-06 0)
(6.51466e-06 6.57202e-06 0)
(5.68205e-06 6.04381e-06 0)
(4.94171e-06 5.55822e-06 0)
(4.27848e-06 5.12213e-06 0)
(3.6877e-06 4.73529e-06 0)
(3.16248e-06 4.39825e-06 0)
(2.69449e-06 4.11209e-06 0)
(2.27385e-06 3.87765e-06 0)
(1.89108e-06 3.70505e-06 0)
(1.53214e-06 3.68493e-06 0)
(1.16397e-06 4.34072e-06 0)
(5.50436e-07 6.19239e-06 0)
(6.15115e-09 -2.84974e-06 0)
(1.91888e-07 -2.99029e-06 0)
(7.61472e-07 -2.15829e-06 0)
(1.31055e-06 -1.67178e-06 0)
(1.85688e-06 -1.48539e-06 0)
(2.31154e-06 -1.3663e-06 0)
(2.6958e-06 -1.21476e-06 0)
(3.01172e-06 -1.00168e-06 0)
(3.26281e-06 -7.20774e-07 0)
(3.44643e-06 -3.73075e-07 0)
(3.56017e-06 3.85004e-08 0)
(3.59804e-06 5.10123e-07 0)
(3.55281e-06 1.03956e-06 0)
(3.41632e-06 1.623e-06 0)
(3.1795e-06 2.25484e-06 0)
(2.8325e-06 2.93074e-06 0)
(2.36638e-06 3.64725e-06 0)
(1.77285e-06 4.39405e-06 0)
(1.04266e-06 5.16398e-06 0)
(1.74431e-07 5.94694e-06 0)
(-8.40598e-07 6.72694e-06 0)
(-2.00779e-06 7.4904e-06 0)
(-3.32431e-06 8.22206e-06 0)
(-4.79124e-06 8.90015e-06 0)
(-6.40266e-06 9.50265e-06 0)
(-8.1503e-06 1.00052e-05 0)
(-1.00214e-05 1.03815e-05 0)
(-1.1998e-05 1.06039e-05 0)
(-1.40564e-05 1.06438e-05 0)
(-1.61672e-05 1.04724e-05 0)
(-1.82944e-05 1.00612e-05 0)
(-2.0396e-05 9.38328e-06 0)
(-2.24233e-05 8.41522e-06 0)
(-2.43207e-05 7.13769e-06 0)
(-2.60275e-05 5.5372e-06 0)
(-2.7478e-05 3.6083e-06 0)
(-2.86002e-05 1.3548e-06 0)
(-2.93262e-05 -1.20639e-06 0)
(-2.95872e-05 -4.05112e-06 0)
(-2.93137e-05 -7.1368e-06 0)
(-2.84479e-05 -1.04088e-05 0)
(-2.69412e-05 -1.37984e-05 0)
(-2.47605e-05 -1.72242e-05 0)
(-2.18897e-05 -2.05932e-05 0)
(-1.83339e-05 -2.38059e-05 0)
(-1.41228e-05 -2.67586e-05 0)
(-9.3113e-06 -2.93481e-05 0)
(-3.97938e-06 -3.14792e-05 0)
(1.77572e-06 -3.30682e-05 0)
(7.83254e-06 -3.40484e-05 0)
(1.40474e-05 -3.43753e-05 0)
(2.02804e-05 -3.40282e-05 0)
(2.63842e-05 -3.30134e-05 0)
(3.22142e-05 -3.1366e-05 0)
(3.76459e-05 -2.91373e-05 0)
(4.25636e-05 -2.64078e-05 0)
(4.6872e-05 -2.32576e-05 0)
(5.05034e-05 -1.98046e-05 0)
(5.34176e-05 -1.61459e-05 0)
(5.55984e-05 -1.23839e-05 0)
(5.70492e-05 -8.61607e-06 0)
(5.77947e-05 -4.93601e-06 0)
(5.78758e-05 -1.42326e-06 0)
(5.73496e-05 1.8603e-06 0)
(5.6284e-05 4.86323e-06 0)
(5.47449e-05 7.55019e-06 0)
(5.28074e-05 9.8984e-06 0)
(5.05476e-05 1.18956e-05 0)
(4.80346e-05 1.35428e-05 0)
(4.5337e-05 1.48478e-05 0)
(4.25178e-05 1.58268e-05 0)
(3.96319e-05 1.65029e-05 0)
(3.67277e-05 1.69015e-05 0)
(3.38495e-05 1.70519e-05 0)
(3.10349e-05 1.69818e-05 0)
(2.83115e-05 1.67263e-05 0)
(2.57026e-05 1.63137e-05 0)
(2.32254e-05 1.57738e-05 0)
(2.08947e-05 1.51298e-05 0)
(1.87199e-05 1.44132e-05 0)
(1.67015e-05 1.36418e-05 0)
(1.48395e-05 1.28371e-05 0)
(1.31356e-05 1.20138e-05 0)
(1.15885e-05 1.119e-05 0)
(1.01916e-05 1.03774e-05 0)
(8.93543e-06 9.58774e-06 0)
(7.80911e-06 8.82959e-06 0)
(6.806e-06 8.11001e-06 0)
(5.91721e-06 7.43343e-06 0)
(5.13057e-06 6.80943e-06 0)
(4.43934e-06 6.23672e-06 0)
(3.83118e-06 5.72053e-06 0)
(3.29447e-06 5.26473e-06 0)
(2.82361e-06 4.86842e-06 0)
(2.41054e-06 4.53142e-06 0)
(2.04578e-06 4.25419e-06 0)
(1.71971e-06 4.04934e-06 0)
(1.41688e-06 4.02408e-06 0)
(1.10602e-06 4.80137e-06 0)
(5.41641e-07 7.02976e-06 0)
(2.54404e-08 -2.96411e-06 0)
(2.58625e-07 -3.37911e-06 0)
(8.20108e-07 -2.70325e-06 0)
(1.38621e-06 -2.23618e-06 0)
(1.95852e-06 -2.00166e-06 0)
(2.4635e-06 -1.81581e-06 0)
(2.90947e-06 -1.59745e-06 0)
(3.29186e-06 -1.31817e-06 0)
(3.61052e-06 -9.71742e-07 0)
(3.86155e-06 -5.55366e-07 0)
(4.04006e-06 -6.99374e-08 0)
(4.14078e-06 4.8371e-07 0)
(4.15582e-06 1.10311e-06 0)
(4.07458e-06 1.78499e-06 0)
(3.88842e-06 2.52474e-06 0)
(3.58803e-06 3.31816e-06 0)
(3.16169e-06 4.16043e-06 0)
(2.59825e-06 5.04319e-06 0)
(1.89021e-06 5.9562e-06 0)
(1.02937e-06 6.89068e-06 0)
(5.17188e-09 7.82611e-06 0)
(-1.18504e-06 8.74997e-06 0)
(-2.5451e-06 9.64155e-06 0)
(-4.07912e-06 1.04783e-05 0)
(-5.78279e-06 1.12339e-05 0)
(-7.65022e-06 1.18801e-05 0)
(-9.67049e-06 1.23853e-05 0)
(-1.1827e-05 1.27165e-05 0)
(-1.40971e-05 1.2839e-05 0)
(-1.64514e-05 1.27173e-05 0)
(-1.88531e-05 1.23158e-05 0)
(-2.12574e-05 1.16004e-05 0)
(-2.3612e-05 1.05403e-05 0)
(-2.58561e-05 9.10915e-06 0)
(-2.79209e-05 7.28759e-06 0)
(-2.97311e-05 5.06548e-06 0)
(-3.12058e-05 2.44362e-06 0)
(-3.22633e-05 -5.64779e-07 0)
(-3.28179e-05 -3.93096e-06 0)
(-3.27865e-05 -7.60798e-06 0)
(-3.2096e-05 -1.15324e-05 0)
(-3.06826e-05 -1.56224e-05 0)
(-2.84989e-05 -1.9779e-05 0)
(-2.55184e-05 -2.38881e-05 0)
(-2.174e-05 -2.78256e-05 0)
(-1.71906e-05 -3.14617e-05 0)
(-1.19288e-05 -3.46647e-05 0)
(-6.04511e-06 -3.73113e-05 0)
(3.45498e-07 -3.92943e-05 0)
(7.10015e-06 -4.05279e-05 0)
(1.40504e-05 -4.09539e-05 0)
(2.10256e-05 -4.05466e-05 0)
(2.78496e-05 -3.93142e-05 0)
(3.43521e-05 -3.72999e-05 0)
(4.03788e-05 -3.45683e-05 0)
(4.5804e-05 -3.12301e-05 0)
(5.05073e-05 -2.73931e-05 0)
(5.44125e-05 -2.31898e-05 0)
(5.74929e-05 -1.87472e-05 0)
(5.97257e-05 -1.41999e-05 0)
(6.11228e-05 -9.66923e-06 0)
(6.17194e-05 -5.2686e-06 0)
(6.15757e-05 -1.08668e-06 0)
(6.07636e-05 2.80176e-06 0)
(5.93635e-05 6.33187e-06 0)
(5.74618e-05 9.46589e-06 0)
(5.5144e-05 1.21821e-05 0)
(5.24975e-05 1.44687e-05 0)
(4.96047e-05 1.63296e-05 0)
(4.65416e-05 1.77797e-05 0)
(4.33798e-05 1.88407e-05 0)
(4.01787e-05 1.95438e-05 0)
(3.69904e-05 1.99226e-05 0)
(3.38595e-05 2.00138e-05 0)
(3.08266e-05 1.98518e-05 0)
(2.79209e-05 1.94761e-05 0)
(2.51608e-05 1.89249e-05 0)
(2.25604e-05 1.82274e-05 0)
(2.0138e-05 1.74222e-05 0)
(1.78976e-05 1.65368e-05 0)
(1.58339e-05 1.55958e-05 0)
(1.3947e-05 1.46235e-05 0)
(1.22364e-05 1.3638e-05 0)
(1.06977e-05 1.26583e-05 0)
(9.32069e-06 1.16968e-05 0)
(8.09521e-06 1.07666e-05 0)
(7.00879e-06 9.87664e-06 0)
(6.05178e-06 9.03656e-06 0)
(5.21432e-06 8.24928e-06 0)
(4.48557e-06 7.52135e-06 0)
(3.85305e-06 6.85843e-06 0)
(3.30672e-06 6.26161e-06 0)
(2.83578e-06 5.7347e-06 0)
(2.42926e-06 5.27767e-06 0)
(2.07931e-06 4.88883e-06 0)
(1.77783e-06 4.56956e-06 0)
(1.51576e-06 4.33231e-06 0)
(1.27759e-06 4.30282e-06 0)
(1.03078e-06 5.20216e-06 0)
(5.26741e-07 7.82857e-06 0)
(4.2236e-08 -3.12396e-06 0)
(3.32255e-07 -3.80058e-06 0)
(9.13707e-07 -3.26527e-06 0)
(1.51287e-06 -2.82587e-06 0)
(2.12134e-06 -2.55883e-06 0)
(2.67908e-06 -2.3201e-06 0)
(3.18646e-06 -2.04322e-06 0)
(3.63637e-06 -1.70316e-06 0)
(4.02556e-06 -1.29193e-06 0)
(4.34836e-06 -8.05968e-07 0)
(4.59941e-06 -2.44775e-07 0)
(4.7713e-06 3.92973e-07 0)
(4.85434e-06 1.10471e-06 0)
(4.83824e-06 1.88832e-06 0)
(4.713e-06 2.74118e-06 0)
(4.46857e-06 3.65889e-06 0)
(4.0918e-06 4.63518e-06 0)
(3.56898e-06 5.66281e-06 0)
(2.89046e-06 6.73219e-06 0)
(2.04462e-06 7.83014e-06 0)
(1.01893e-06 8.9398e-06 0)
(-1.92193e-07 1.00433e-05 0)
(-1.59595e-06 1.1118e-05 0)
(-3.19886e-06 1.21388e-05 0)
(-5.00093e-06 1.30762e-05 0)
(-6.99903e-06 1.38963e-05 0)
(-9.18509e-06 1.45636e-05 0)
(-1.15443e-05 1.50383e-05 0)
(-1.40557e-05 1.52788e-05 0)
(-1.66905e-05 1.52418e-05 0)
(-1.94113e-05 1.48835e-05 0)
(-2.21716e-05 1.41609e-05 0)
(-2.49146e-05 1.30339e-05 0)
(-2.75735e-05 1.14676e-05 0)
(-3.00712e-05 9.4346e-06 0)
(-3.23219e-05 6.91737e-06 0)
(-3.42303e-05 3.91104e-06 0)
(-3.57004e-05 4.2676e-07 0)
(-3.66298e-05 -3.50559e-06 0)
(-3.69144e-05 -7.83737e-06 0)
(-3.64613e-05 -1.24955e-05 0)
(-3.51868e-05 -1.7384e-05 0)
(-3.30249e-05 -2.23836e-05 0)
(-2.99348e-05 -2.7356e-05 0)
(-2.5906e-05 -3.21471e-05 0)
(-2.09605e-05 -3.65927e-05 0)
(-1.51597e-05 -4.05287e-05 0)
(-8.60808e-06 -4.37961e-05 0)
(-1.44015e-06 -4.62588e-05 0)
(6.17372e-06 -4.78037e-05 0)
(1.40294e-05 -4.83544e-05 0)
(2.19208e-05 -4.78792e-05 0)
(2.96318e-05 -4.63895e-05 0)
(3.69611e-05 -4.39371e-05 0)
(4.37167e-05 -4.06126e-05 0)
(4.97397e-05 -3.65497e-05 0)
(5.49132e-05 -3.19008e-05 0)
(5.91502e-05 -2.68128e-05 0)
(6.24083e-05 -2.14612e-05 0)
(6.4677e-05 -1.60077e-05 0)
(6.59811e-05 -1.06034e-05 0)
(6.63779e-05 -5.38387e-06 0)
(6.59467e-05 -4.56162e-07 0)
(6.47686e-05 4.08957e-06 0)
(6.29484e-05 8.18979e-06 0)
(6.05954e-05 1.1798e-05 0)
(5.78104e-05 1.48899e-05 0)
(5.46953e-05 1.74604e-05 0)
(5.13458e-05 1.95221e-05 0)
(4.78484e-05 2.1095e-05 0)
(4.42821e-05 2.22098e-05 0)
(4.07139e-05 2.29059e-05 0)
(3.71978e-05 2.3229e-05 0)
(3.37788e-05 2.32239e-05 0)
(3.04973e-05 2.29336e-05 0)
(2.73847e-05 2.2402e-05 0)
(2.44539e-05 2.16765e-05 0)
(2.17227e-05 2.07946e-05 0)
(1.92041e-05 1.97976e-05 0)
(1.68934e-05 1.87165e-05 0)
(1.47882e-05 1.75829e-05 0)
(1.28818e-05 1.64225e-05 0)
(1.11705e-05 1.52577e-05 0)
(9.64746e-06 1.41061e-05 0)
(8.30007e-06 1.29835e-05 0)
(7.11554e-06 1.19025e-05 0)
(6.07932e-06 1.08742e-05 0)
(5.17888e-06 9.90678e-06 0)
(4.40219e-06 9.00512e-06 0)
(3.7399e-06 8.17212e-06 0)
(3.17977e-06 7.41457e-06 0)
(2.70763e-06 6.73658e-06 0)
(2.31071e-06 6.13726e-06 0)
(1.97776e-06 5.618e-06 0)
(1.70109e-06 5.17736e-06 0)
(1.47215e-06 4.816e-06 0)
(1.28162e-06 4.54697e-06 0)
(1.11335e-06 4.51232e-06 0)
(9.38832e-07 5.53435e-06 0)
(5.08964e-07 8.57967e-06 0)
(5.60031e-08 -3.32879e-06 0)
(4.06708e-07 -4.26832e-06 0)
(1.02792e-06 -3.86381e-06 0)
(1.67436e-06 -3.45428e-06 0)
(2.33036e-06 -3.16444e-06 0)
(2.94711e-06 -2.8839e-06 0)
(3.52013e-06 -2.55614e-06 0)
(4.04203e-06 -2.15966e-06 0)
(4.5075e-06 -1.68688e-06 0)
(4.90866e-06 -1.13299e-06 0)
(5.23901e-06 -4.94655e-07 0)
(5.4903e-06 2.27407e-07 0)
(5.65124e-06 1.03299e-06 0)
(5.71116e-06 1.92221e-06 0)
(5.65915e-06 2.89289e-06 0)
(5.48224e-06 3.94097e-06 0)
(5.16587e-06 5.06038e-06 0)
(4.69555e-06 6.24352e-06 0)
(4.05784e-06 7.48111e-06 0)
(3.23725e-06 8.75911e-06 0)
(2.21857e-06 1.00617e-05 0)
(9.93414e-07 1.13658e-05 0)
(-4.49509e-07 1.265e-05 0)