/*--------------------------------*- C++ -*----------------------------------*\
| =========                 |                                                 |
| \\      /  F ield         | OpenFOAM: The Open Source CFD Toolbox           |
|  \\    /   O peration     | Version:  2312                                  |
|   \\  /    A nd           | Website:  www.openfoam.com                      |
|    \\/     M anipulation  |                                                 |
\*---------------------------------------------------------------------------*/
FoamFile
{
    version     2.0;
    format      ascii;
    arch        "LSB;label=32;scalar=64";
    class       surfaceScalarField;
    location    "0.45";
    object      alphaPhi0.water;
}
// * * * * * * * * * * * * * * * * * * * * * * * * * * * * * * * * * * * * * //

dimensions      [0 3 -1 0 0 0 0];

oriented        oriented;

internalField   nonuniform List<scalar> 
19800
(
3.63426e-13
-3.45281e-13
3.88718e-13
-2.49903e-14
2.04962e-13
1.84353e-13
5.41076e-14
1.51677e-13
3.43474e-14
2.04436e-14
1.03063e-13
-6.87785e-14
1.75295e-13
-7.33271e-14
1.83747e-13
-1.00492e-14
8.6929e-14
9.57874e-14
-1.39828e-13
2.26924e-13
-5.1346e-13
3.74479e-13
-1.04754e-12
5.34343e-13
-1.75356e-12
7.0489e-13
-2.64149e-12
8.85873e-13
-3.72035e-12
1.07717e-12
-4.99913e-12
1.2783e-12
-6.48675e-12
1.48807e-12
-8.19082e-12
1.70458e-12
-1.01163e-11
1.92573e-12
-1.22649e-11
2.14911e-12
-1.46349e-11
2.37175e-12
-1.72216e-11
2.58968e-12
-2.00165e-11
2.79794e-12
-2.30053e-11
2.99089e-12
-2.61671e-11
3.16256e-12
-2.94734e-11
3.30663e-12
-3.2889e-11
3.41623e-12
-3.63718e-11
3.4838e-12
-3.98724e-11
3.50112e-12
-4.33328e-11
3.45982e-12
-4.66857e-11
3.35177e-12
-4.98557e-11
3.16941e-12
-5.27605e-11
2.90543e-12
-5.53115e-11
2.55236e-12
-5.7415e-11
2.10411e-12
-5.89727e-11
1.55674e-12
-5.98826e-11
9.08144e-13
-6.00511e-11
1.67404e-13
-5.93592e-11
-6.91352e-13
-5.77357e-11
-1.62188e-12
-5.50997e-11
-2.63506e-12
-5.13874e-11
-3.71196e-12
-4.65547e-11
-4.83151e-12
-4.05833e-11
-5.96932e-12
-3.34848e-11
-7.09673e-12
-2.52992e-11
-8.18466e-12
-1.60991e-11
-9.19997e-12
-5.99153e-12
-1.01087e-11
4.885e-12
-1.08769e-11
1.63568e-11
-1.14698e-11
2.82361e-11
-1.18774e-11
4.03077e-11
-1.20714e-11
5.23481e-11
-1.20415e-11
6.41301e-11
-1.17839e-11
7.54321e-11
-1.13028e-11
8.60481e-11
-1.0616e-11
9.5794e-11
-9.74673e-12
1.04506e-10
-8.71194e-12
1.12055e-10
-7.54882e-12
1.18348e-10
-6.29291e-12
1.23327e-10
-4.97882e-12
1.26971e-10
-3.64192e-12
1.29287e-10
-2.31625e-12
1.30318e-10
-1.03219e-12
1.3013e-10
1.84749e-13
1.28814e-10
1.3137e-12
1.26478e-10
2.33715e-12
1.23235e-10
3.24275e-12
1.19212e-10
4.02305e-12
1.14536e-10
4.67523e-12
1.09335e-10
5.19952e-12
1.03731e-10
5.60106e-12
9.78438e-11
5.88707e-12
9.17793e-11
6.06503e-12
8.56344e-11
6.14458e-12
7.94942e-11
6.13839e-12
7.3438e-11
6.05729e-12
6.75247e-11
5.91435e-12
6.18072e-11
5.71841e-12
5.63254e-11
5.48085e-12
5.11134e-11
5.21173e-12
4.61872e-11
4.92464e-12
4.15712e-11
4.62106e-12
3.72593e-11
4.31029e-12
3.3259e-11
3.99896e-12
2.9566e-11
3.69173e-12
2.61698e-11
3.39294e-12
2.30611e-11
3.10899e-12
2.02277e-11
2.83739e-12
1.76474e-11
2.58038e-12
1.52996e-11
2.34468e-12
1.31662e-11
2.13484e-12
1.12115e-11
1.95126e-12
9.42499e-12
1.79157e-12
7.7576e-12
1.66116e-12
6.195e-12
1.56314e-12
4.68826e-12
1.50572e-12
3.18682e-12
1.50785e-12
1.60329e-12
1.59452e-12
1.6081e-12
4.84099e-13
-8.29096e-13
5.634e-13
-1.03198e-13
1.62848e-13
5.86047e-13
-4.08536e-13
7.23894e-13
-9.23058e-13
5.34887e-13
-1.35682e-12
3.6374e-13
-1.79501e-12
3.6307e-13
-2.33491e-12
5.28646e-13
-3.05186e-12
8.12765e-13
-4.00019e-12
1.1759e-12
-5.2207e-12
1.59486e-12
-6.74618e-12
2.05814e-12
-8.60423e-12
2.56031e-12
-1.08183e-11
3.09787e-12
-1.34099e-11
3.66824e-12
-1.63989e-11
4.26802e-12
-1.9803e-11
4.89314e-12
-2.3636e-11
5.53853e-12
-2.79063e-11
6.19762e-12
-3.26163e-11
6.86215e-12
-3.77621e-11
7.52197e-12
-4.33328e-11
8.16489e-12
-4.93086e-11
8.77698e-12
-5.56586e-11
9.34257e-12
-6.23391e-11
9.84408e-12
-6.92935e-11
1.02621e-11
-7.64518e-11
1.05758e-11
-8.37305e-11
1.0763e-11
-9.1031e-11
1.0801e-11
-9.82387e-11
1.06664e-11
-1.05223e-10
1.03357e-11
-1.11839e-10
9.78636e-12
-1.17929e-10
8.99693e-12
-1.23325e-10
7.94887e-12
-1.2785e-10
6.62716e-12
-1.31317e-10
5.0224e-12
-1.3354e-10
3.13007e-12
-1.34328e-10
9.56683e-13
-1.33527e-10
-1.49003e-12
-1.30959e-10
-4.1879e-12
-1.26495e-10
-7.0966e-12
-1.20035e-10
-1.01706e-11
-1.11512e-10
-1.33521e-11
-1.00907e-10
-1.6571e-11
-8.82556e-11
-1.97465e-11
-7.36486e-11
-2.27934e-11
-5.7233e-11
-2.5616e-11
-3.92171e-11
-2.81229e-11
-1.98673e-11
-3.02252e-11
5.07174e-13
-3.18431e-11
2.15412e-11
-3.29114e-11
4.2853e-11
-3.33849e-11
6.40422e-11
-3.3232e-11
8.4705e-11
-3.24485e-11
1.04454e-10
-3.10529e-11
1.22928e-10
-2.90896e-11
1.39801e-10
-2.66201e-11
1.54806e-10
-2.37181e-11
1.67731e-10
-2.0474e-11
1.78427e-10
-1.69871e-11
1.86805e-10
-1.33568e-11
1.92843e-10
-9.68012e-12
1.96572e-10
-6.04783e-12
1.98078e-10
-2.54188e-12
1.97497e-10
7.65254e-13
1.94993e-10
3.81752e-12
1.90763e-10
6.56764e-12
1.8502e-10
8.98512e-12
1.77989e-10
1.10525e-11
1.69896e-10
1.27637e-11
1.60972e-10
1.41228e-11
1.5143e-10
1.51417e-11
1.41476e-10
1.5841e-11
1.31296e-10
1.62441e-11
1.2106e-10
1.63804e-11
1.10916e-10
1.62822e-11
1.00993e-10
1.59818e-11
9.13955e-11
1.55119e-11
8.22108e-11
1.49036e-11
7.35046e-11
1.41874e-11
6.5329e-11
1.33894e-11
5.77149e-11
1.25355e-11
5.06864e-11
1.16505e-11
4.42448e-11
1.07503e-11
3.83906e-11
9.84881e-12
3.31112e-11
8.97107e-12
2.83922e-11
8.11637e-12
2.42039e-11
7.29739e-12
2.05186e-11
6.52168e-12
1.73016e-11
5.79772e-12
1.45114e-11
5.13021e-12
1.21126e-11
4.53705e-12
1.00525e-11
4.00822e-12
8.28416e-12
3.56272e-12
6.75829e-12
3.18928e-12
5.41617e-12
2.90568e-12
4.18685e-12
2.73362e-12
2.9568e-12
2.72682e-12
1.55544e-12
2.9843e-12
3.16643e-12
6.38131e-13
-1.46663e-12
1.14186e-12
-6.05747e-13
1.1756e-12
5.53484e-13
8.25018e-13
1.0756e-12
2.97968e-13
1.06262e-12
-3.00363e-13
9.61975e-13
-9.74242e-13
1.03622e-12
-1.77797e-12
1.33161e-12
-2.77569e-12
1.8102e-12
-4.02629e-12
2.4266e-12
-5.58091e-12
3.1494e-12
-7.48347e-12
3.96002e-12
-9.77146e-12
4.84727e-12
-1.24776e-11
5.80325e-12
-1.5631e-11
6.82164e-12
-1.92576e-11
7.89526e-12
-2.33794e-11
9.01583e-12
-2.80136e-11
1.01738e-11
-3.31707e-11
1.13561e-11
-3.88536e-11
1.25471e-11
-4.50577e-11
1.3729e-11
-5.17701e-11
1.48804e-11
-5.89671e-11
1.59766e-11
-6.66125e-11
1.69897e-11
-7.46554e-11
1.7888e-11
-8.303e-11
1.86374e-11
-9.16547e-11
1.92012e-11
-1.00432e-10
1.95408e-11
-1.09246e-10
1.96154e-11
-1.17963e-10
1.93834e-11
-1.2643e-10
1.88028e-11
-1.34477e-10
1.78337e-11
-1.41918e-10
1.64389e-11
-1.48554e-10
1.45859e-11
-1.54175e-10
1.22478e-11
-1.5856e-10
9.40763e-12
-1.61488e-10
6.05843e-12
-1.62738e-10
2.20883e-12
-1.62111e-10
-2.11495e-12
-1.59411e-10
-6.8862e-12
-1.54476e-10
-1.20286e-11
-1.47185e-10
-1.74608e-11
-1.37457e-10
-2.30788e-11
-1.2527e-10
-2.87574e-11
-1.10661e-10
-3.43546e-11
-9.37417e-11
-3.97134e-11
-7.46849e-11
-4.46731e-11
-5.37386e-11
-4.90679e-11
-3.12202e-11
-5.27435e-11
-7.50467e-12
-5.55594e-11
1.69843e-11
-5.74006e-11
4.17863e-11
-5.81876e-11
6.64235e-11
-5.78697e-11
9.0417e-11
-5.6444e-11
1.13309e-10
-5.39479e-11
1.34673e-10
-5.0455e-11
1.54133e-10
-4.60792e-11
1.71373e-10
-4.0959e-11
1.86153e-10
-3.52555e-11
1.98306e-10
-2.91407e-11
2.0774e-10
-2.27904e-11
2.14436e-10
-1.63755e-11
2.18446e-10
-1.00555e-11
2.19879e-10
-3.97431e-12
2.189e-10
1.74491e-12
2.15717e-10
6.99863e-12
2.10564e-10
1.17187e-11
2.03697e-10
1.58508e-11
1.95384e-10
1.93661e-11
1.85892e-10
2.22551e-11
1.75487e-10
2.45277e-11
1.64422e-10
2.62074e-11
1.5293e-10
2.73313e-11
1.41229e-10
2.79433e-11
1.29514e-10
2.80952e-11
1.17951e-10
2.7844e-11
1.06689e-10
2.72462e-11
9.58429e-11
2.63587e-11
8.55114e-11
2.52366e-11
7.57718e-11
2.39285e-11
6.66681e-11
2.24886e-11
5.82473e-11
2.09559e-11
5.05255e-11
1.93714e-11
4.35105e-11
1.77638e-11
3.71895e-11
1.61743e-11
3.15515e-11
1.46102e-11
2.65646e-11
1.31011e-11
2.22061e-11
1.16571e-11
1.84323e-11
1.02947e-11
1.51978e-11
9.03111e-12
1.24625e-11
7.87097e-12
1.01676e-11
6.82883e-12
8.27211e-12
5.91005e-12
6.70716e-12
5.12124e-12
5.43275e-12
4.47292e-12
4.37425e-12
3.97262e-12
3.45011e-12
3.66626e-12
2.53287e-12
3.65033e-12
1.41282e-12
4.09515e-12
4.58064e-12
6.08462e-13
-2.0742e-12
1.3023e-12
-1.29873e-12
1.73874e-12
1.18128e-13
1.79241e-12
1.02343e-12
1.53284e-12
1.32346e-12
1.05544e-12
1.43951e-12
4.04885e-13
1.68559e-12
-4.28515e-13
2.16339e-12
-1.48083e-12
2.86164e-12
-2.80014e-12
3.74617e-12
-4.43508e-12
4.78509e-12
-6.43224e-12
5.95744e-12
-8.83317e-12
7.24766e-12
-1.16749e-11
8.64422e-12
-1.49905e-11
1.01372e-11
-1.88097e-11
1.17153e-11
-2.31586e-11
1.33657e-11
-2.80565e-11
1.50723e-11
-3.35163e-11
1.68161e-11
-3.95429e-11
1.85747e-11
-4.61331e-11
2.03214e-11
-5.3275e-11
2.20254e-11
-6.09462e-11
2.36506e-11
-6.9111e-11
2.5156e-11
-7.77185e-11
2.6496e-11
-8.67019e-11
2.76214e-11
-9.59779e-11
2.8479e-11
-1.05447e-10
2.90118e-11
-1.1499e-10
2.91596e-11
-1.24467e-10
2.88608e-11
-1.33718e-10
2.80539e-11
-1.42564e-10
2.668e-11
-1.50806e-10
2.46834e-11
-1.58232e-10
2.20144e-11
-1.64615e-10
1.8632e-11
-1.69715e-10
1.45083e-11
-1.73289e-10
9.63304e-12
-1.75094e-10
4.01656e-12
-1.74905e-10
-2.30169e-12
-1.72499e-10
-9.29079e-12
-1.67692e-10
-1.68345e-11
-1.60337e-10
-2.48157e-11
-1.50336e-10
-3.30808e-11
-1.37648e-10
-4.14446e-11
-1.22305e-10
-4.96961e-11
-1.04411e-10
-5.7606e-11
-8.41553e-11
-6.49293e-11
-6.18008e-11
-7.14229e-11
-3.76919e-11
-7.68526e-11
-1.22423e-11
-8.1009e-11
1.4078e-11
-8.37206e-11
4.07607e-11
-8.48723e-11
6.727e-11
-8.43821e-11
9.30743e-11
-8.22508e-11
1.17661e-10
-7.85372e-11
1.4056e-10
-7.33541e-11
1.61356e-10
-6.68742e-11
1.79704e-10
-5.93087e-11
1.95344e-10
-5.08986e-11
2.08104e-10
-4.19006e-11
2.17894e-10
-3.25771e-11
2.24705e-10
-2.31836e-11
2.28608e-10
-1.39558e-11
2.29735e-10
-5.10264e-12
2.28283e-10
3.1958e-12
2.24486e-10
1.07949e-11
2.1861e-10
1.75951e-11
2.10942e-10
2.35209e-11
2.01776e-10
2.85334e-11
1.91406e-10
3.2624e-11
1.80122e-10
3.58122e-11
1.68194e-10
3.81362e-11
1.55873e-10
3.96507e-11
1.43389e-10
4.04254e-11
1.30947e-10
4.05383e-11
1.18721e-10
4.0071e-11
1.06863e-10
3.91083e-11
9.54919e-11
3.77325e-11
8.47062e-11
3.60214e-11
7.45808e-11
3.40537e-11
6.51633e-11
3.1902e-11
5.64968e-11
2.96234e-11
4.85945e-11
2.72772e-11
4.14469e-11
2.49109e-11
3.50572e-11
2.25637e-11
2.93986e-11
2.027e-11
2.44389e-11
1.80596e-11
2.01409e-11
1.59547e-11
1.6461e-11
1.39794e-11
1.33476e-11
1.21439e-11
1.07538e-11
1.04686e-11
8.6192e-12
8.95982e-12
6.89946e-12
7.63501e-12
5.53262e-12
6.48875e-12
4.46062e-12
5.54303e-12
3.6204e-12
4.81476e-12
2.9232e-12
4.36736e-12
2.23435e-12
4.34611e-12
1.31124e-12
5.01533e-12
5.8944e-12
4.79697e-13
-2.5531e-12
1.12619e-12
-1.94553e-12
1.75087e-12
-5.06026e-13
2.13259e-12
6.42985e-13
2.19922e-12
1.25762e-12
1.98141e-12
1.65637e-12
1.5169e-12
2.14761e-12
8.17904e-13
2.86e-12
-1.3476e-13
3.81361e-12
-1.37517e-12
4.98759e-12
-2.94738e-12
6.35851e-12
-4.8947e-12
7.90473e-12
-7.25839e-12
9.6101e-12
-1.00769e-11
1.14616e-11
-1.33855e-11
1.3446e-11
-1.72173e-11
1.55481e-11
-2.16009e-11
1.775e-11
-2.656e-11
2.00309e-11
-3.21101e-11
2.23653e-11
-3.82589e-11
2.4724e-11
-4.50072e-11
2.70723e-11
-5.23472e-11
2.9369e-11
-6.02606e-11
3.15665e-11
-6.87151e-11
3.36113e-11
-7.76626e-11
3.5444e-11
-8.70392e-11
3.69998e-11
-9.67647e-11
3.82078e-11
-1.06741e-10
3.89915e-11
-1.16851e-10
3.92703e-11
-1.26952e-10
3.89618e-11
-1.36881e-10
3.79837e-11
-1.46453e-10
3.62546e-11
-1.55463e-10
3.36971e-11
-1.63687e-10
3.02409e-11
-1.70883e-10
2.58283e-11
-1.76792e-10
2.0418e-11
-1.8115e-10
1.39918e-11
-1.83689e-10
6.55778e-12
-1.84151e-10
-1.83734e-12
-1.8229e-10
-1.11521e-11
-1.77884e-10
-2.12416e-11
-1.70754e-10
-3.19457e-11
-1.60772e-10
-4.30615e-11
-1.47875e-10
-5.43405e-11
-1.32072e-10
-6.54965e-11
-1.13463e-10
-7.6214e-11
-9.22316e-11
-8.61613e-11
-6.86601e-11
-9.49947e-11
-4.31173e-11
-1.02395e-10
-1.60584e-11
-1.08068e-10
1.19945e-11
-1.11775e-10
4.04822e-11
-1.13364e-10
6.87979e-11
-1.12702e-10
9.63486e-11
-1.09802e-10
1.22559e-10
-1.04747e-10
1.46903e-10
-9.76984e-11
1.68923e-10
-8.88949e-11
1.88244e-10
-7.86318e-11
2.04588e-10
-6.72426e-11
2.17774e-10
-5.50839e-11
2.2772e-10
-4.25201e-11
2.34434e-10
-2.98977e-11
2.38014e-10
-1.75356e-11
2.38624e-10
-5.71387e-12
2.36496e-10
5.32458e-12
2.31902e-10
1.53923e-11
2.25142e-10
2.43565e-11
2.16538e-10
3.21257e-11
2.06417e-10
3.86552e-11
1.95102e-10
4.39415e-11
1.82902e-10
4.8014e-11
1.70107e-10
5.0932e-11
1.56984e-10
5.27739e-11
1.4377e-10
5.36374e-11
1.30681e-10
5.36308e-11
1.1789e-10
5.2864e-11
1.05551e-10
5.14505e-11
9.37809e-11
4.95025e-11
8.26773e-11
4.71249e-11
7.23067e-11
4.44253e-11
6.2719e-11
4.14921e-11
5.39397e-11
3.84044e-11
4.59771e-11
3.52379e-11
3.88298e-11
3.20561e-11
3.24822e-11
2.89096e-11
2.68985e-11
2.58528e-11
2.20523e-11
2.29082e-11
1.78863e-11
2.01215e-11
1.43597e-11
1.75042e-11
1.14213e-11
1.50858e-11
9.00589e-12
1.28817e-11
7.07374e-12
1.08978e-11
5.55367e-12
9.15181e-12
4.39482e-12
7.65431e-12
3.53879e-12
6.40218e-12
2.91404e-12
5.43593e-12
2.43655e-12
4.84567e-12
1.95756e-12
4.82604e-12
1.21958e-12
5.75072e-12
7.1119e-12
3.89746e-13
-2.94287e-12
9.58183e-13
-2.51589e-12
1.6581e-12
-1.20633e-12
2.26001e-12
4.15105e-14
2.61375e-12
9.03434e-13
2.68183e-12
1.58606e-12
2.47414e-12
2.35228e-12
1.99642e-12
3.33592e-12
1.23622e-12
4.57421e-12
1.64364e-13
6.06097e-12
-1.25638e-12
7.77985e-12
-3.06827e-12
9.71538e-12
-5.31011e-12
1.185e-11
-8.02061e-12
1.41713e-11
-1.12375e-11
1.66636e-11
-1.49971e-11
1.93088e-11
-1.93324e-11
2.20851e-11
-2.42699e-11
2.49668e-11
-2.9829e-11
2.79235e-11
-3.60231e-11
3.09194e-11
-4.28588e-11
3.39113e-11
-5.03344e-11
3.68478e-11
-5.8437e-11
3.96707e-11
-6.71395e-11
4.23143e-11
-7.63995e-11
4.47052e-11
-8.61585e-11
4.67619e-11
-9.63418e-11
4.83946e-11
-1.06855e-10
4.9507e-11
-1.17582e-10
4.99975e-11
-1.28381e-10
4.97613e-11
-1.39086e-10
4.86914e-11
-1.49509e-10
4.66812e-11
-1.59436e-10
4.36277e-11
-1.68632e-10
3.9437e-11
-1.76835e-10
3.40314e-11
-1.83767e-10
2.73502e-11
-1.89134e-10
1.93606e-11
-1.92638e-10
1.00637e-11
-1.93987e-10
-4.88699e-13
-1.92889e-10
-1.22503e-11
-1.89082e-10
-2.50504e-11
-1.8234e-10
-3.8686e-11
-1.72496e-10
-5.29033e-11
-1.59449e-10
-6.73858e-11
-1.43181e-10
-8.17634e-11
-1.23771e-10
-9.5623e-11
-1.01408e-10
-1.08523e-10
-7.63813e-11
-1.2002e-10
-4.90999e-11
-1.29677e-10
-2.0063e-11
-1.37108e-10
1.01481e-11
-1.41989e-10
4.0862e-11
-1.44081e-10
7.14218e-11
-1.43264e-10
1.01138e-10
-1.39518e-10
1.29353e-10
-1.32961e-10
1.55467e-10
-1.23814e-10
1.78967e-10
-1.12395e-10
1.99438e-10
-9.91015e-11
2.16576e-10
-8.438e-11
2.302e-10
-6.87072e-11
2.40235e-10
-5.25571e-11
2.4672e-10
-3.63839e-11
2.49787e-10
-2.06011e-11
2.49644e-10
-5.56821e-12
2.46574e-10
8.39709e-12
2.40895e-10
2.10741e-11
2.32956e-10
3.22961e-11
2.23125e-10
4.19578e-11
2.11768e-10
5.00137e-11
1.99243e-10
5.64695e-11
1.85888e-10
6.13721e-11
1.72013e-10
6.48066e-11
1.57904e-10
6.68847e-11
1.43811e-10
6.77331e-11
1.29948e-10
6.74942e-11
1.16497e-10
6.6313e-11
1.03609e-10
6.43394e-11
9.13977e-11
6.17129e-11
7.99526e-11
5.85726e-11
6.93339e-11
5.5046e-11
5.95815e-11
5.12451e-11
5.07097e-11
4.72747e-11
4.27231e-11
4.32229e-11
3.56119e-11
3.91656e-11
2.93424e-11
3.51824e-11
2.38887e-11
3.13087e-11
1.91813e-11
2.76075e-11
1.52017e-11
2.41025e-11
1.18713e-11
2.08312e-11
9.15044e-12
1.78141e-11
6.96448e-12
1.50632e-11
5.26678e-12
1.25986e-11
3.99117e-12
1.04289e-11
3.07963e-12
8.56142e-12
2.47933e-12
7.00893e-12
2.111e-12
5.80674e-12
1.88596e-12
5.0712e-12
1.64582e-12
5.06279e-12
1.11681e-12
6.27967e-12
8.23002e-12
3.83579e-13
-3.32775e-12
9.55588e-13
-3.09101e-12
1.73259e-12
-1.98439e-12
2.50937e-12
-7.35614e-13
3.10858e-12
3.03092e-13
3.45231e-12
1.24023e-12
3.5207e-12
2.28219e-12
3.303e-12
3.55366e-12
2.78516e-12
5.09354e-12
1.93748e-12
6.90982e-12
7.23238e-13
8.99351e-12
-8.94748e-13
1.13313e-11
-2.95739e-12
1.3911e-11
-5.50483e-12
1.67187e-11
-8.57756e-12
1.97375e-11
-1.22157e-11
2.29475e-11
-1.64556e-11
2.63241e-11
-2.13284e-11
2.98383e-11
-2.68601e-11
3.34552e-11
-3.30704e-11
3.71318e-11
-3.99734e-11
4.08172e-11
-4.75746e-11
4.44512e-11
-5.58686e-11
4.79655e-11
-6.48355e-11
5.12818e-11
-7.44407e-11
5.4312e-11
-8.46339e-11
5.69574e-11
-9.53468e-11
5.91095e-11
-1.0649e-10
6.06513e-11
-1.1795e-10
6.14585e-11
-1.29588e-10
6.14007e-11
-1.41236e-10
6.03433e-11
-1.52703e-10
5.81508e-11
-1.63766e-10
5.46915e-11
-1.74173e-10
4.98436e-11
-1.83642e-10
4.35013e-11
-1.9187e-10
3.55794e-11
-1.98532e-10
2.60232e-11
-2.03287e-10
1.48191e-11
-2.05796e-10
2.01922e-12
-2.05718e-10
-1.23277e-11
-2.02728e-10
-2.80403e-11
-1.96546e-10
-4.48671e-11
-1.86946e-10
-6.25018e-11
-1.73777e-10
-8.05541e-11
-1.56981e-10
-9.85591e-11
-1.3661e-10
-1.15992e-10
-1.12843e-10
-1.32288e-10
-8.59952e-11
-1.46869e-10
-5.65061e-11
-1.59168e-10
-2.49531e-11
-1.68664e-10
7.98267e-12
-1.74927e-10
4.15953e-11
-1.77694e-10
7.50429e-11
-1.76713e-10
1.07538e-10
-1.72013e-10
1.38315e-10
-1.63738e-10
1.6668e-10
-1.5218e-10
1.92045e-10
-1.37759e-10
2.13941e-10
-1.20997e-10
2.32041e-10
-1.02481e-10
2.46155e-10
-8.28235e-11
2.56235e-10
-6.26373e-11
2.62353e-10
-4.25021e-11
2.64693e-10
-2.29394e-11
2.63522e-10
-4.39562e-12
2.59191e-10
1.27293e-11
2.52081e-10
2.81856e-11
2.42605e-10
4.17739e-11
2.31188e-10
5.33777e-11
2.18248e-10
6.29567e-11
2.04182e-10
7.05355e-11
1.89368e-10
7.61895e-11
1.74143e-10
8.00335e-11
1.58806e-10
8.22185e-11
1.43626e-10
8.2912e-11
1.28819e-10
8.22974e-11
1.14571e-10
8.0561e-11
1.01027e-10
7.78864e-11
8.82953e-11
7.44462e-11
7.64539e-11
7.04155e-11
6.55544e-11
6.59428e-11
5.56228e-11
6.11734e-11
4.66692e-11
5.62288e-11
3.86821e-11
5.12121e-11
3.16212e-11
4.62246e-11
2.54666e-11
4.13343e-11
2.01649e-11
3.66151e-11
1.56734e-11
3.21016e-11
1.1918e-11
2.78573e-11
8.84928e-12
2.39017e-11
6.39846e-12
2.02676e-11
4.49512e-12
1.69677e-11
3.08622e-12
1.40039e-11
2.11009e-12
1.1405e-11
1.50351e-12
9.16918e-12
1.20538e-12
7.31026e-12
1.14272e-12
5.87382e-12
1.21978e-12
4.99528e-12
1.26769e-12
5.01017e-12
9.83336e-13
6.56149e-12
9.21104e-12
4.47159e-13
-3.77713e-12
1.12129e-12
-3.76839e-12
2.0279e-12
-2.8921e-12
2.9877e-12
-1.69576e-12
3.82341e-12
-5.33023e-13
4.43773e-12
6.25642e-13
4.78986e-12
1.93071e-12
4.8584e-12
3.48677e-12
4.61426e-12
5.3393e-12
4.02827e-12
7.49609e-12
3.06627e-12
9.95422e-12
1.68926e-12
1.27067e-11
-1.46907e-13
1.57465e-11
-2.48595e-12
1.90585e-11
-5.37135e-12
2.2624e-11
-8.84676e-12
2.64231e-11
-1.29538e-11
3.04304e-11
-1.77296e-11
3.46135e-11
-2.32068e-11
3.89331e-11
-2.94145e-11
4.33411e-11
-3.63747e-11
4.77791e-11
-4.41023e-11
5.21797e-11
-5.26005e-11
5.64639e-11
-6.18597e-11
6.0541e-11
-7.18555e-11
6.43081e-11
-8.25471e-11
6.76495e-11
-9.38747e-11
7.04376e-11
-1.05756e-10
7.25335e-11
-1.18083e-10
7.37873e-11
-1.3072e-10
7.40402e-11
-1.43502e-10
7.31273e-11
-1.56231e-10
7.08809e-11
-1.68675e-10
6.71359e-11
-1.80567e-10
6.17353e-11
-1.91602e-10
5.45376e-11
-2.01446e-10
4.54248e-11
-2.09735e-10
3.43121e-11
-2.1608e-10
2.11635e-11
-2.20069e-10
6.00722e-12
-2.21331e-10
-1.10648e-11
-2.19431e-10
-2.99405e-11
-2.14029e-10
-5.02705e-11
-2.04821e-10
-7.17106e-11
-1.91585e-10
-9.37891e-11
-1.74206e-10
-1.15936e-10
-1.52698e-10
-1.37498e-10
-1.27227e-10
-1.57758e-10
-9.81195e-11
-1.75977e-10
-6.58708e-11
-1.91417e-10
-3.11288e-11
-2.03406e-10
5.32902e-12
-2.11386e-10
4.2546e-11
-2.14912e-10
7.9651e-11
-2.13819e-10
1.15667e-10
-2.08029e-10
1.49681e-10
-1.97752e-10
1.80875e-10
-1.83374e-10
2.08559e-10
-1.65445e-10
2.32205e-10
-1.44645e-10
2.5145e-10
-1.21727e-10
2.6611e-10
-9.74827e-11
2.76163e-10
-7.26888e-11
2.81736e-10
-4.80757e-11
2.83086e-10
-2.42907e-11
2.80546e-10
-1.85494e-12
2.74578e-10
1.86994e-11
2.6563e-10
3.71354e-11
2.54198e-10
5.32055e-11
2.40781e-10
6.67962e-11
2.2586e-10
7.78813e-11
2.09886e-10
8.65116e-11
1.93274e-10
9.28013e-11
1.76396e-10
9.69106e-11
1.59573e-10
9.90366e-11
1.43086e-10
9.93999e-11
1.27155e-10
9.82273e-11
1.11967e-10
9.57514e-11
9.76544e-11
9.21962e-11
8.43238e-11
8.77747e-11
7.20334e-11
8.27053e-11
6.08322e-11
7.71496e-11
5.07176e-11
7.12877e-11
4.16861e-11
6.52579e-11
3.37084e-11
5.91884e-11
2.6753e-11
5.31821e-11
2.07667e-11
4.73236e-11
1.56851e-11
4.16914e-11
1.14402e-11
3.63509e-11
7.97333e-12
3.13202e-11
5.21385e-12
2.66641e-11
3.09345e-12
2.23844e-11
1.54514e-12
1.8513e-11
4.899e-13
1.50646e-11
-1.28492e-13
1.2028e-11
-3.7635e-13
9.41727e-12
-3.12009e-13
7.24794e-12
-8.95816e-15
5.57376e-12
4.2034e-13
4.56234e-12
8.14826e-13
4.61389e-12
8.23457e-13
6.55326e-12
1.00347e-11
5.53732e-13
-4.33308e-12
1.40504e-12
-4.62242e-12
2.50836e-12
-3.99621e-12
3.68908e-12
-2.87612e-12
4.78206e-12
-1.62485e-12
5.68167e-12
-2.72225e-13
6.33604e-12
1.27838e-12
6.70958e-12
3.11497e-12
6.77218e-12
5.27746e-12
6.48877e-12
7.77906e-12
5.81998e-12
1.06219e-11
4.72215e-12
1.38036e-11
3.15536e-12
1.73131e-11
1.0702e-12
2.11442e-11
-1.58275e-12
2.52776e-11
-4.85356e-12
2.96941e-11
-8.78822e-12
3.43646e-11
-1.34317e-11
3.92566e-11
-1.88258e-11
4.43273e-11
-2.5008e-11
4.9524e-11
-3.20113e-11
5.47833e-11
-3.9861e-11
6.00298e-11
-4.85721e-11
6.51745e-11
-5.81472e-11
7.0115e-11
-6.85741e-11
7.47339e-11
-7.98241e-11
7.8899e-11
-9.18483e-11
8.24626e-11
-1.04575e-10
8.52615e-11
-1.17904e-10
8.71185e-11
-1.31707e-10
8.78446e-11
-1.4582e-10
8.72412e-11
-1.60043e-10
8.51041e-11
-1.74134e-10
8.12278e-11
-1.8781e-10
7.54124e-11
-2.00744e-10
6.74719e-11
-2.12566e-10
5.72471e-11
-2.22865e-10
4.46097e-11
-2.31193e-10
2.94912e-11
-2.37075e-10
1.18879e-11
-2.40043e-10
-8.09872e-12
-2.39586e-10
-3.03984e-11
-2.35256e-10
-5.46014e-11
-2.26652e-10
-8.03147e-11
-2.13457e-10
-1.06983e-10
-1.95476e-10
-1.33917e-10
-1.72664e-10
-1.6031e-10
-1.4516e-10
-1.85262e-10
-1.13308e-10
-2.07828e-10
-7.76597e-11
-2.27064e-10
-3.89725e-11
-2.42094e-10
1.81561e-12
-2.52176e-10
4.36454e-11
-2.56743e-10
8.53389e-11
-2.55513e-10
1.25766e-10
-2.48456e-10
1.63821e-10
-2.35807e-10
1.98519e-10
-2.18075e-10
2.29052e-10
-1.9598e-10
2.54806e-10
-1.70399e-10
2.75387e-10
-1.42307e-10
2.90618e-10
-1.12714e-10
3.00524e-10
-8.25963e-11
3.05306e-10
-5.28598e-11
3.05313e-10
-2.42975e-11
3.01016e-10
2.44335e-12
2.92937e-10
2.67803e-11
2.81663e-10
4.84108e-11
2.67786e-10
6.7083e-11
2.51893e-10
8.26906e-11
2.34541e-10
9.52351e-11
2.16244e-10
1.04809e-10
1.97464e-10
1.11577e-10
1.78611e-10
1.15764e-10
1.60029e-10
1.1762e-10
1.42006e-10
1.17426e-10
1.24771e-10
1.15464e-10
1.085e-10
1.12021e-10
9.33203e-11
1.07371e-10
7.93248e-11
1.01776e-10
6.65573e-11
9.54723e-11
5.50271e-11
8.86785e-11
4.4737e-11
8.15778e-11
3.56559e-11
7.4339e-11
2.77399e-11
6.71037e-11
2.09275e-11
5.9988e-11
1.51538e-11
5.30971e-11
1.03448e-11
4.64997e-11
6.42991e-12
4.02667e-11
3.32356e-12
3.44282e-11
9.50099e-13
2.90366e-11
-7.7478e-13
2.41125e-11
-1.91961e-12
1.96557e-11
-2.55135e-12
1.56944e-11
-2.74601e-12
1.222e-11
-2.56907e-12
9.24063e-12
-2.08219e-12
6.76254e-12
-1.36643e-12
4.85948e-12
-5.17632e-13
3.71295e-12
2.77562e-13
3.81885e-12
6.35277e-13
6.19514e-12
1.06696e-11
6.85412e-13
-5.02016e-12
1.77138e-12
-5.71099e-12
3.13052e-12
-5.35608e-12
4.58071e-12
-4.32535e-12
5.96231e-12
-3.0044e-12
7.17613e-12
-1.48392e-12
8.15955e-12
2.96356e-13
8.87223e-12
2.40273e-12
9.27663e-12
4.87281e-12
9.3331e-12
7.72197e-12
8.99884e-12
1.09553e-11
8.23041e-12
1.45712e-11
6.9774e-12
1.85656e-11
5.19157e-12
2.29301e-11
2.81621e-12
2.76532e-11
-2.00185e-13
3.27104e-11
-3.9167e-12
3.80804e-11
-8.38589e-12
4.37247e-11
-1.36588e-11
4.95996e-11
-1.97841e-11
5.56496e-11
-2.68066e-11
6.18062e-11
-3.47645e-11
6.79874e-11
-4.36864e-11
7.40951e-11
-5.35896e-11
8.00165e-11
-6.44769e-11
8.56206e-11
-7.63347e-11
9.07577e-11
-8.91292e-11
9.52586e-11
-1.02802e-10
9.89354e-11
-1.17265e-10
1.01583e-10
-1.32399e-10
1.02978e-10
-1.48044e-10
1.02887e-10
-1.64001e-10
1.01062e-10
-1.80022e-10
9.72502e-11
-1.9581e-10
9.12003e-11
-2.11012e-10
8.2673e-11
-2.25219e-10
7.14526e-11
-2.3797e-10
5.73593e-11
-2.4875e-10
4.02686e-11
-2.56999e-10
2.01349e-11
-2.62145e-10
-2.95445e-12
-2.63577e-10
-2.89665e-11
-2.6071e-10
-5.74678e-11
-2.53014e-10
-8.80103e-11
-2.40045e-10
-1.19951e-10
-2.21496e-10
-1.52466e-10
-1.97237e-10
-1.84569e-10
-1.67358e-10
-2.15139e-10
-1.32214e-10
-2.42972e-10
-9.24222e-11
-2.66857e-10
-4.88708e-11
-2.85647e-10
-2.68828e-12
-2.9836e-10
4.48252e-11
-3.04255e-10
9.22644e-11
-3.02951e-10
1.38186e-10
-2.94379e-10
1.81245e-10
-2.7887e-10
2.20253e-10
-2.57085e-10
2.54239e-10
-2.29966e-10
2.82497e-10
-1.98655e-10
3.04596e-10
-1.64407e-10
3.20384e-10
-1.28503e-10
3.29953e-10
-9.21678e-11
3.33611e-10
-5.65187e-11
3.31834e-10
-2.25183e-11
3.2524e-10
9.03732e-12
3.14488e-10
3.75322e-11
3.00303e-10
6.25977e-11
2.83403e-10
8.39855e-11
2.64481e-10
1.01614e-10
2.44185e-10
1.1553e-10
2.23104e-10
1.25891e-10
2.01756e-10
1.32929e-10
1.8058e-10
1.36939e-10
1.59949e-10
1.38251e-10
1.40158e-10
1.37216e-10
1.21439e-10
1.34185e-10
1.0396e-10
1.29505e-10
8.78305e-11
1.23499e-10
7.31046e-11
1.16499e-10
5.98311e-11
1.0875e-10
4.79918e-11
1.0052e-10
3.75558e-11
9.20104e-11
2.84685e-11
8.3418e-11
2.06645e-11
7.4902e-11
1.40653e-11
6.65886e-11
8.58266e-12
5.85771e-11
4.13129e-12
5.09505e-11
6.15916e-13
4.37762e-11
-2.06382e-12
3.7103e-11
-3.98031e-12
3.09508e-11
-5.22354e-12
2.53482e-11
-5.88649e-12
2.03116e-11
-6.02756e-12
1.58376e-11
-5.73268e-12
1.19254e-11
-5.06906e-12
8.57528e-12
-4.10235e-12
5.80088e-12
-2.91059e-12
3.66625e-12
-1.58823e-12
2.39054e-12
-3.40468e-13
2.57111e-12
4.18248e-13
5.43622e-12
1.10852e-11
8.35018e-13
-5.8567e-12
2.19712e-12
-7.07648e-12
3.86033e-12
-7.02045e-12
5.62981e-12
-6.09409e-12
7.34433e-12
-4.71757e-12
8.90754e-12
-3.04655e-12
1.02545e-11
-1.05114e-12
1.13414e-11
1.31503e-12
1.21267e-11
4.08684e-12
1.2567e-11
7.2811e-12
1.26162e-11
1.09052e-11
1.22236e-11
1.49623e-11
1.1336e-11
1.9452e-11
9.90032e-12
2.43652e-11
7.85965e-12
2.96937e-11
5.14696e-12
3.54224e-11
1.7029e-12
4.1523e-11
-2.53812e-12
4.79643e-11
-7.6416e-12
5.47028e-11
-1.36664e-11
6.1675e-11
-2.06715e-11
6.88115e-11
-2.871e-11
7.6025e-11
-3.78267e-11
8.32106e-11
-4.80551e-11
9.0245e-11
-5.94175e-11
9.69846e-11
-7.19191e-11
1.03261e-10
-8.55452e-11
1.08885e-10
-1.00254e-10
1.13644e-10
-1.15973e-10
1.17302e-10
-1.32597e-10
1.19603e-10
-1.49976e-10
1.20268e-10
-1.67916e-10
1.19003e-10
-1.86167e-10
1.15501e-10
-2.04419e-10
1.09451e-10
-2.22294e-10
1.00547e-10
-2.39347e-10
8.8503e-11
-2.5506e-10
7.30695e-11
-2.68842e-10
5.40468e-11
-2.80038e-10
3.13297e-11
-2.87939e-10
4.94773e-12
-2.91832e-10
-2.50714e-11
-2.90944e-10
-5.83538e-11
-2.84582e-10
-9.43725e-11
-2.72133e-10
-1.324e-10
-2.53131e-10
-1.71468e-10
-2.2732e-10
-2.10379e-10
-1.94718e-10
-2.4774e-10
-1.55666e-10
-2.82024e-10
-1.10856e-10
-3.11668e-10
-6.13386e-11
-3.35166e-10
-8.48036e-12
-3.51218e-10
4.61091e-11
-3.58844e-10
1.00663e-10
-3.57505e-10
1.53397e-10
-3.47115e-10
2.02631e-10
-3.28106e-10
2.46903e-10
-3.01358e-10
2.85046e-10
-2.68109e-10
3.16238e-10
-2.29848e-10
3.4002e-10
-1.88191e-10
3.56286e-10
-1.44767e-10
3.65229e-10
-1.01112e-10
3.67308e-10
-5.85981e-11
3.63154e-10
-1.83647e-11
3.536e-10
1.85942e-11
3.39475e-10
5.16589e-11
3.2167e-10
8.04023e-11
3.01059e-10
1.04597e-10
2.78466e-10
1.24207e-10
2.54645e-10
1.39354e-10
2.30263e-10
1.50272e-10
2.059e-10
1.57294e-10
1.82033e-10
1.60803e-10
1.59055e-10
1.61229e-10
1.37268e-10
1.59006e-10
1.16893e-10
1.54562e-10
9.80862e-11
1.48309e-10
8.09251e-11
1.40665e-10
6.54628e-11
1.31961e-10
5.16815e-11
1.2253e-10
3.95634e-11
1.12635e-10
2.90242e-11
1.02548e-10
2.00067e-11
9.24413e-11
1.23919e-11
8.25131e-11
6.09246e-12
7.28868e-11
9.91436e-13
6.36785e-11
-3.02765e-12
5.49671e-11
-6.05579e-12
4.68084e-11
-8.20454e-12
3.92474e-11
-9.57689e-12
3.23226e-11
-1.02666e-11
2.60412e-11
-1.0361e-11
2.04051e-11
-9.943e-12
1.54173e-11
-9.09199e-12
1.10708e-11
-7.87557e-12
7.35996e-12
-6.3642e-12
4.29556e-12
-4.63124e-12
1.93462e-12
-2.79464e-12
5.53313e-13
-1.03786e-12
8.13312e-13
1.58869e-13
4.23845e-12
1.12457e-11
9.9584e-13
-6.85478e-12
2.66751e-12
-8.75246e-12
4.68389e-12
-9.03848e-12
6.81691e-12
-8.22727e-12
8.90867e-12
-6.80968e-12
1.08601e-11
-4.99942e-12
1.26114e-11
-2.80417e-12
1.41134e-11
-1.88037e-13
1.53228e-11
2.87705e-12
1.61926e-11
6.41056e-12
1.6673e-11
1.04231e-11
1.67113e-11
1.49219e-11
1.62515e-11
1.99102e-11
1.52298e-11
2.53862e-11
1.35791e-11
3.13435e-11
1.12325e-11
3.77674e-11
8.11808e-12
4.46358e-11
4.16227e-12
5.19195e-11
-7.05324e-13
5.95709e-11
-6.57195e-12
6.75422e-11
-1.35081e-11
7.57473e-11
-2.15832e-11
8.40995e-11
-3.08601e-11
9.24884e-11
-4.13939e-11
1.00782e-10
-5.32285e-11
1.08822e-10
-6.63929e-11
1.16427e-10
-8.08939e-11
1.23385e-10
-9.67118e-11
1.2946e-10
-1.13796e-10
1.34386e-10
-1.3206e-10
1.37868e-10
-1.51372e-10
1.39582e-10
-1.71548e-10
1.3918e-10
-1.92341e-10
1.36293e-10
-2.13433e-10
1.30542e-10
-2.34428e-10
1.21541e-10
-2.54844e-10
1.08916e-10
-2.74101e-10
9.23238e-11
-2.91532e-10
7.14761e-11
-3.06368e-10
4.61669e-11
-3.17748e-10
1.63311e-11
-3.2483e-10
-1.79866e-11
-3.26602e-10
-5.65811e-11
-3.22163e-10
-9.88113e-11
-3.10675e-10
-1.43889e-10
-2.91454e-10
-1.90689e-10
-2.64062e-10
-2.37771e-10
-2.2839e-10
-2.83411e-10
-1.84743e-10
-3.25672e-10
-1.33887e-10
-3.62525e-10
-7.7063e-11
-3.91991e-10
-1.59546e-11
-4.12328e-10
4.74136e-11
-4.22213e-10
1.10826e-10
-4.20918e-10
1.72009e-10
-4.08298e-10
2.28855e-10
-3.84953e-10
2.79544e-10
-3.52049e-10
3.22659e-10
-3.11227e-10
3.57254e-10
-2.64443e-10
3.82846e-10
-2.13785e-10
3.9941e-10
-1.61331e-10
4.07296e-10
-1.08999e-10
4.07164e-10
-5.84658e-11
3.99878e-10
-1.1077e-11
3.86518e-10
3.1954e-11
3.68148e-10
7.00309e-11
3.45864e-10
1.02686e-10
3.20727e-10
1.29736e-10
2.93715e-10
1.51221e-10
2.657e-10
1.67367e-10
2.37443e-10
1.78526e-10
2.0958e-10
1.85152e-10
1.82634e-10
1.87752e-10
1.57006e-10
1.86858e-10
1.32993e-10
1.83013e-10
1.10816e-10
1.76743e-10
9.05753e-11
1.68553e-10
7.23503e-11
1.58892e-10
5.61365e-11
1.48177e-10
4.18999e-11
1.3677e-10
2.95528e-11
1.24986e-10
1.90065e-11
1.13092e-10
1.0135e-11
1.01312e-10
2.81967e-12
8.98327e-11
-3.09115e-12
7.87951e-11
-7.70898e-12
6.82987e-11
-1.11681e-11
5.84277e-11
-1.35993e-11
4.92373e-11
-1.51287e-11
4.07786e-11
-1.58577e-11
3.30513e-11
-1.59036e-11
2.60798e-11
-1.53527e-11
1.98519e-11
-1.42955e-11