/*--------------------------------*- C++ -*----------------------------------*\
| =========                 |                                                 |
| \\      /  F ield         | OpenFOAM: The Open Source CFD Toolbox           |
|  \\    /   O peration     | Version:  2312                                  |
|   \\  /    A nd           | Website:  www.openfoam.com                      |
|    \\/     M anipulation  |                                                 |
\*---------------------------------------------------------------------------*/
FoamFile
{
    version     2.0;
    format      ascii;
    arch        "LSB;label=32;scalar=64";
    class       volScalarField;
    location    "0.45";
    object      p_rgh;
}
// * * * * * * * * * * * * * * * * * * * * * * * * * * * * * * * * * * * * * //

dimensions      [1 -1 -2 0 0 0 0];

internalField   nonuniform List<scalar> 
10000
(
0
4.04686e-05
0.000119421
0.000236967
0.000392836
0.000587034
0.000818448
0.0010866
0.00139194
0.0017333
0.0021102
0.00252195
0.0029676
0.00344613
0.00395651
0.00449771
0.00506864
0.005668
0.00629426
0.00694578
0.00762081
0.00831758
0.00903412
0.00976828
0.0105177
0.0112801
0.0120528
0.0128336
0.0136197
0.0144084
0.0151969
0.0159825
0.0167625
0.0175342
0.0182949
0.0190419
0.0197724
0.0204837
0.0211736
0.0218398
0.0224804
0.023093
0.0236756
0.0242264
0.024744
0.0252268
0.0256734
0.0260829
0.0264546
0.0267875
0.0270816
0.0273367
0.0275531
0.0277315
0.0278725
0.0279777
0.0280487
0.0280868
0.0280939
0.0280721
0.0280238
0.027951
0.0278562
0.0277413
0.0276086
0.02746
0.0272972
0.0271227
0.026938
0.0267449
0.026545
0.0263396
0.0261298
0.0259172
0.0257029
0.0254878
0.0252727
0.0250587
0.0248469
0.0246381
0.0244329
0.0242323
0.0240366
0.0238475
0.0236645
0.0234894
0.0233224
0.0231642
0.0230161
0.0228782
0.0227509
0.0226344
0.02253
0.0224375
0.0223581
0.0222913
0.0222381
0.0221986
0.0221728
0.0221607
-3.78389e-05
2.36171e-06
8.1358e-05
0.000199172
0.000355572
0.000549652
0.000781497
0.00105074
0.00135633
0.00169836
0.00207618
0.00248897
0.00293575
0.00341553
0.00392734
0.00447017
0.00504289
0.00564415
0.00627239
0.00692599
0.00760324
0.00830236
0.00902136
0.00975806
0.0105101
0.0112751
0.0120505
0.012834
0.0136228
0.0144141
0.0152052
0.0159932
0.0167755
0.0175494
0.0183122
0.0190609
0.0197928
0.0205053
0.0211963
0.0218634
0.0225044
0.0231173
0.0237
0.0242507
0.024768
0.0252504
0.0256966
0.0261054
0.0264764
0.0268088
0.0271024
0.0273568
0.0275726
0.0277505
0.0278912
0.0279959
0.0280665
0.0281043
0.0281112
0.0280891
0.0280405
0.0279676
0.0278726
0.0277576
0.0276244
0.0274756
0.0273125
0.0271375
0.0269524
0.0267587
0.0265581
0.0263521
0.0261417
0.0259282
0.0257129
0.0254968
0.0252806
0.0250656
0.0248526
0.0246426
0.0244362
0.0242345
0.0240375
0.023847
0.0236629
0.0234864
0.0233184
0.0231593
0.02301
0.0228711
0.0227429
0.0226256
0.0225203
0.0224272
0.0223471
0.0222801
0.0222266
0.0221873
0.0221618
0.0221494
-0.000115026
-7.48796e-05
4.35163e-06
0.000122466
0.000279187
0.000474054
0.000706767
0.000976913
0.00128393
0.00162747
0.00200696
0.00242161
0.00287053
0.00335274
0.00386727
0.0044131
0.00498905
0.00559374
0.00622563
0.00688308
0.00756441
0.00826785
0.00899141
0.00973287
0.0104898
0.0112599
0.0120405
0.0128293
0.0136234
0.0144201
0.0152165
0.0160098
0.0167971
0.0175759
0.0183433
0.0190962
0.0198321
0.0205482
0.0212425
0.0219126
0.0225561
0.0231711
0.0237556
0.0243077
0.0248258
0.0253088
0.0257554
0.0261643
0.0265351
0.026867
0.0271598
0.0274134
0.027628
0.0278046
0.0279439
0.0280469
0.0281153
0.0281512
0.028156
0.0281318
0.0280808
0.0280056
0.0279084
0.0277912
0.0276559
0.027505
0.0273399
0.0271627
0.0269756
0.0267801
0.0265775
0.0263696
0.0261575
0.0259421
0.0257249
0.0255067
0.0252887
0.0250717
0.0248567
0.0246446
0.0244364
0.0242322
0.0240336
0.0238407
0.0236547
0.0234764
0.0233064
0.0231456
0.0229945
0.0228538
0.0227239
0.0226055
0.0224988
0.0224051
0.0223236
0.0222557
0.0222017
0.0221619
0.0221366
0.0221241
-0.000231406
-0.000191152
-0.00011162
6.99575e-06
0.000164447
0.00036038
0.000594398
0.00086606
0.00117491
0.00152055
0.00190245
0.00231987
0.00277192
0.00325764
0.00377607
0.00432615
0.0049067
0.00551632
0.00615344
0.00681646
0.00750374
0.00821352
0.0089438
0.0096923
0.0104566
0.0112341
0.0120226
0.0128193
0.0136215
0.0144264
0.0152309
0.0160322
0.0168274
0.0176139
0.0183886
0.0191485
0.0198909
0.0206133
0.0213132
0.0219885
0.0226368
0.0232557
0.0238436
0.0243986
0.024919
0.0254038
0.0258518
0.0262616
0.0266327
0.0269644
0.0272565
0.027509
0.027722
0.0278961
0.0280324
0.0281323
0.0281972
0.0282291
0.0282297
0.0282011
0.0281457
0.0280659
0.0279642
0.0278427
0.0277031
0.0275478
0.0273787
0.0271978
0.0270073
0.0268084
0.0266026
0.0263914
0.0261762
0.0259578
0.0257376
0.0255164
0.0252954
0.0250755
0.0248578
0.0246427
0.0244316
0.0242245
0.0240229
0.0238276
0.0236388
0.0234581
0.0232855
0.023122
0.0229684
0.0228256
0.0226936
0.0225736
0.0224653
0.0223698
0.0222874
0.0222184
0.0221633
0.0221227
0.0220966
0.022084
-0.000387123
-0.000346698
-0.00026675
-0.000147411
1.10909e-05
0.000208412
0.00044412
0.000717778
0.001029
0.00137741
0.0017625
0.00218357
0.00263971
0.00312996
0.00365338
0.00420895
0.00479545
0.00541145
0.0060554
0.00672575
0.00742091
0.00813914
0.00887837
0.0096362
0.0104102
0.0111978
0.0119966
0.0128041
0.0136172
0.0144331
0.0152485
0.0160607
0.0168668
0.0176639
0.0184487
0.0192184
0.01997
0.020701
0.021409
0.0220917
0.0227466
0.0233715
0.0239644
0.0245238
0.025048
0.0255358
0.025986
0.0263975
0.0267695
0.0271013
0.0273927
0.0276436
0.027854
0.0280247
0.0281569
0.0282521
0.0283119
0.0283379
0.0283322
0.0282971
0.0282351
0.0281486
0.02804
0.0279116
0.0277655
0.0276041
0.0274293
0.0272432
0.0270474
0.0268436
0.0266331
0.0264174
0.0261979
0.0259755
0.0257512
0.0255261
0.0253012
0.0250775
0.0248558
0.024637
0.0244219
0.0242115
0.0240063
0.0238075
0.0236155
0.0234312
0.0232555
0.023089
0.0229324
0.0227866
0.0226521
0.0225293
0.0224191
0.0223215
0.0222374
0.0221672
0.0221109
0.0220692
0.0220424
0.0220293
-0.000582555
-0.000541874
-0.000461356
-0.000341069
-0.000181254
1.77496e-05
0.00025551
0.000531641
0.000845825
0.00119772
0.00158679
0.00201232
0.00247341
0.00296916
0.00349868
0.00406093
0.00465469
0.00527853
0.00593095
0.00661047
0.00731554
0.00804434
0.00879471
0.00956419
0.0103503
0.0111506
0.0119626
0.0127836
0.0136105
0.0144402
0.0152696
0.0160958
0.0169158
0.0177263
0.0185242
0.0193062
0.0200698
0.0208121
0.0215306
0.0222229
0.0228864
0.023519
0.0241187
0.024684
0.0252134
0.0257053
0.0261588
0.0265728
0.0269462
0.0272783
0.0275687
0.0278174
0.0280246
0.0281911
0.0283181
0.0284071
0.0284597
0.0284779
0.0284638
0.02842
0.0283489
0.0282533
0.0281354
0.027998
0.0278434
0.027674
0.0274917
0.0272983
0.0270958
0.0268855
0.0266689
0.0264476
0.0262226
0.025995
0.0257657
0.0255357
0.0253059
0.0250775
0.0248509
0.0246277
0.0244081
0.0241933
0.0239839
0.0237806
0.0235842
0.0233959
0.0232164
0.023046
0.0228858
0.0227364
0.0225988
0.022473
0.0223599
0.0222599
0.0221735
0.0221014
0.022044
0.0220012
0.0219734
0.0219599
-0.000818132
-0.000777091
-0.000695837
-0.000574421
-0.000413049
-0.000212082
2.81126e-05
0.000307223
0.000624973
0.000981002
0.00137475
0.00180548
0.00227236
0.00277457
0.00331126
0.00388139
0.00448373
0.0051169
0.00577949
0.00647006
0.00718704
0.00792851
0.00869221
0.00947571
0.0102765
0.0110922
0.0119202
0.0127575
0.0136011
0.0144477
0.0152943
0.0161376
0.0169745
0.0178015
0.0186153
0.0194128
0.0201911
0.0209474
0.0216788
0.0223828
0.023057
0.0236993
0.0243076
0.0248804
0.0254162
0.0259136
0.0263714
0.0267884
0.0271635
0.0274961
0.0277855
0.0280317
0.0282351
0.0283965
0.0285169
0.028598
0.0286415
0.0286497
0.0286249
0.0285698
0.0284871
0.0283797
0.0282504
0.0281019
0.0279366
0.0277571
0.0275651
0.0273627
0.0271518
0.0269339
0.02671
0.0264817
0.0262503
0.0260164
0.0257811
0.025545
0.0253095
0.0250754
0.0248435
0.0246148
0.0243901
0.0241697
0.0239549
0.0237467
0.0235454
0.023352
0.0231676
0.0229928
0.0228283
0.022675
0.0225336
0.0224043
0.0222877
0.0221846
0.0220956
0.0220211
0.0219621
0.0219181
0.0218891
0.0218748
-0.00109428
-0.00105276
-0.000970608
-0.000847871
-0.00068475
-0.000481524
-0.00023849
4.40938e-05
0.000365945
0.000726667
0.00112569
0.00156234
0.00203586
0.00254546
0.00309037
0.00366955
0.00428181
0.00492586
0.00560034
0.00630381
0.00703462
0.00779079
0.00857006
0.00936999
0.0101881
0.0110219
0.0118686
0.0127253
0.0135887
0.0144555
0.0153225
0.0161862
0.0170431
0.0178898
0.0187229
0.0195389
0.0203348
0.0211076
0.0218544
0.0225725
0.0232595
0.0239134
0.0245321
0.0251139
0.0256576
0.0261616
0.0266247
0.0270454
0.0274227
0.0277559
0.0280445
0.0282882
0.0284871
0.0286422
0.0287546
0.0288259
0.0288582
0.0288539
0.0288158
0.0287467
0.0286497
0.0285281
0.0283848
0.0282226
0.0280443
0.0278524
0.0276492
0.0274362
0.0272152
0.0269882
0.0267559
0.0265195
0.0262803
0.026039
0.0257967
0.0255539
0.0253121
0.0250715
0.0248333
0.024598
0.0243669
0.0241408
0.02392
0.0237055
0.0234984
0.0232995
0.0231095
0.0229295
0.0227599
0.0226019
0.0224558
0.0223221
0.0222014
0.0220952
0.0220031
0.0219263
0.021865
0.0218192
0.0217893
0.0217745
-0.00141141
-0.00136929
-0.0012861
-0.00116188
-0.000996775
-0.000790977
-0.000544716
-0.000258243
6.8137e-05
0.000434024
0.0008389
0.00128215
0.00176311
0.00228106
0.00283522
0.00342462
0.00404815
0.0047046
0.00539261
0.00611072
0.00685723
0.00763015
0.00842722
0.00924602
0.0100841
0.0109388
0.0118073
0.0126865
0.0135731
0.0144635
0.0153542
0.0162416
0.0171221
0.017992
0.0188476
0.0196853
0.0205018
0.0212939
0.0220587
0.0227932
0.0234952
0.0241626
0.0247934
0.025386
0.025939
0.0264507
0.0269198
0.0273451
0.0277254
0.0280598
0.0283475
0.0285885
0.0287822
0.0289299
0.0290327
0.0290923
0.0291109
0.0290914
0.0290369
0.028951
0.028837
0.0286981
0.0285379
0.0283595
0.0281657
0.0279595
0.027743
0.0275177
0.0272854
0.0270476
0.0268057
0.0265603
0.0263123
0.0260627
0.0258125
0.0255624
0.0253131
0.0250651
0.0248197
0.0245777
0.0243394
0.0241061
0.0238784
0.0236573
0.0234434
0.0232378
0.0230416
0.0228553
0.0226802
0.0225165
0.0223652
0.0222266
0.0221017
0.0219914
0.0218959
0.0218162
0.0217525
0.0217048
0.0216731
0.0216575
-0.00176994
-0.00172712
-0.00164276
-0.0015169
-0.00134957
-0.0011409
-0.000891089
-0.00060041
-0.000269145
0.000102354
0.000513639
0.000964165
0.00145332
0.00198046
0.00254487
0.00314567
0.00378175
0.00445202
0.00515509
0.00588952
0.0066536
0.00744534
0.00826246
0.0091026
0.0099633
0.0108419
0.0117355
0.0126406
0.0135537
0.0144711
0.0153892
0.016304
0.0172119
0.0181086
0.0189902
0.019853
0.0206932
0.0215076
0.0222929
0.0230463
0.0237655
0.0244485
0.0250932
0.0256981
0.0262616
0.0267822
0.0272585
0.0276893
0.0280734
0.0284096
0.0286967
0.0289346
0.0291226
0.0292617
0.0293531
0.0293986
0.0294009
0.0293633
0.0292894
0.0291831
0.0290484
0.0288891
0.028709
0.0285117
0.0283001
0.0280773
0.0278455
0.0276063
0.0273612
0.0271117
0.0268587
0.0266034
0.0263459
0.0260875
0.0258284
0.0255699
0.0253125
0.0250567
0.0248032
0.0245529
0.024307
0.0240659
0.0238302
0.023601
0.0233797
0.0231668
0.0229636
0.0227705
0.0225885
0.0224187
0.0222615
0.0221174
0.0219875
0.0218726
0.0217733
0.0216902
0.0216236
0.0215736
0.0215405
0.0215238
-0.00217036
-0.00212678
-0.00204116
-0.00191347
-0.00174367
-0.00153189
-0.0012783
-0.000983143
-0.000646657
-0.000269112
0.000149102
0.000607491
0.00110552
0.00164265
0.00221825
0.00283151
0.0034814
0.00416678
0.00488639
0.00563881
0.00642233
0.00723494
0.00807442
0.0089385
0.00982475
0.0107304
0.0116523
0.0125867
0.0135299
0.0144781
0.0154274
0.0163738
0.0173128
0.0182402
0.0191516
0.020043
0.0209103
0.02175
0.0225587
0.0233336
0.0240723
0.0247728
0.0254331
0.0260517
0.0266269
0.0271576
0.0276423
0.0280799
0.0284687
0.0288073
0.0290943
0.0293291
0.0295107
0.0296401
0.0297181
0.0297471
0.02973
0.0296707
0.0295736
0.029443
0.0292838
0.0291004
0.0288971
0.028678
0.028446
0.0282044
0.0279553
0.0277006
0.0274414
0.0271792
0.0269146
0.0266483
0.0263806
0.0261124
0.0258442
0.0255767
0.0253104
0.0250457
0.0247836
0.0245245
0.0242696
0.0240194
0.0237752
0.0235374
0.0233073
0.023086
0.0228744
0.0226737
0.0224843
0.0223074
0.0221436
0.0219936
0.0218584
0.0217383
0.0216345
0.0215477
0.0214781
0.0214257
0.0213906
0.0213728
-0.00261329
-0.00256892
-0.00248193
-0.00235224
-0.00217978
-0.00196469
-0.00170712
-0.00140724
-0.00106521
-0.000681228
-0.000255653
0.000211102
0.000718624
0.00126649
0.00185414
0.00248081
0.00314556
0.00384733
0.00458497
0.00535703
0.00616184
0.00699742
0.00786168
0.00875245
0.00966727
0.0106032
0.0115566
0.0125239
0.013501
0.0144841
0.0154689
0.0164508
0.0174253
0.0183876
0.0193329
0.0202567
0.0211548
0.0220231
0.0228582
0.0236573
0.0244177
0.0251375
0.0258149
0.0264483
0.0270366
0.0275786
0.028073
0.0285185
0.0289132
0.0292553
0.0295431
0.029775
0.0299498
0.030068
0.0301307
0.0301402
0.0301001
0.030015
0.0298903
0.029731
0.029543
0.0293313
0.029101
0.0288566
0.0286015
0.0283389
0.0280707
0.0277991
0.0275248
0.0272489
0.026972
0.0266941
0.0264158
0.0261377
0.0258595
0.0255824
0.0253067
0.0250324
0.0247608
0.0244919
0.0242273
0.0239673
0.0237129
0.0234654
0.0232259
0.0229952
0.0227747
0.0225654
0.0223677
0.022183
0.0220119
0.0218551
0.0217135
0.0215882
0.0214797
0.0213885
0.0213149
0.0212598
0.0212227
0.0212035
-0.0030994
-0.00305423
-0.00296576
-0.0028339
-0.00265865
-0.00244011
-0.00217838
-0.00187355
-0.00152567
-0.00113496
-0.000701679
-0.000226123
0.000291442
0.000850689
0.00145112
0.00209205
0.00277266
0.00349204
0.0042491
0.00504244
0.00587039
0.00673111
0.00762267
0.00854294
0.0094893
0.0104586
0.0114471
0.012451
0.0134662
0.0144885
0.0155132
0.0165354
0.01755
0.0185517
0.0195353
0.0204959
0.0214286
0.0223292
0.023194
0.0240199
0.024804
0.0255447
0.0262404
0.02689
0.0274924
0.0280467
0.0285521
0.029007
0.0294093
0.0297565
0.0300461
0.0302758
0.0304436
0.0305494
0.0305944
0.0305811
0.0305138
0.0303979
0.0302402
0.030047
0.029825
0.0295803
0.0293186
0.0290456
0.0287645
0.0284787
0.02819
0.0278999
0.0276097
0.0273194
0.0270298
0.0267402
0.0264508
0.0261624
0.0258743
0.0255873
0.0253014
0.0250168
0.0247347
0.0244553
0.0241798
0.0239091
0.023644
0.0233858
0.0231359
0.0228946
0.0226639
0.0224449
0.0222382
0.0220447
0.0218653
0.021701
0.0215525
0.0214209
0.021307
0.0212111
0.0211336
0.0210752
0.0210359
0.0210153
-0.00362934
-0.00358332
-0.00349325
-0.00335915
-0.003181
-0.00295889
-0.00269285
-0.00238286
-0.00202899
-0.00163134
-0.00119009
-0.000705367
-0.000177304
0.000393846
0.00100767
0.00166361
0.00236102
0.00309913
0.00387692
0.00469305
0.005546
0.00643409
0.00735547
0.00830795
0.00928878
0.0102947
0.011322
0.0123666
0.0134244
0.0144905
0.01556
0.0166275
0.0176873
0.0187336
0.0197605
0.0207625
0.0217343
0.0226711
0.0235689
0.0244241
0.0252339
0.0259968
0.0267121
0.0273785
0.0279957
0.0285634
0.029081
0.0295471
0.0299591
0.0303135
0.0306067
0.0308356
0.0309967
0.031089
0.0311135
0.0310734
0.0309739
0.0308214
0.0306243
0.0303905
0.0301285
0.0298455
0.0295481
0.0292424
0.0289324
0.0286211
0.0283105
0.0280012
0.0276943
0.0273897
0.027087
0.0267858
0.0264857
0.0261865
0.0258882
0.0255908
0.0252941
0.0249988
0.0247056
0.0244149
0.0241278
0.0238452
0.023568
0.023298
0.0230363
0.0227838
0.0225421
0.022312
0.0220952
0.0218919
0.0217035
0.0215307
0.0213745
0.0212362
0.0211162
0.021015
0.0209332
0.0208712
0.0208295
0.0208077
-0.00420365
-0.0041567
-0.00406497
-0.00392858
-0.00374752
-0.00352178
-0.00325133
-0.00293614
-0.00257618
-0.00217148
-0.00172206
-0.00122789
-0.000689008
-0.000105564
0.00052216
0.00119378
0.00190882
0.00266662
0.00346629
0.00430669
0.00518646
0.00610406
0.00705765
0.00804498
0.00906321
0.0101093
0.0111793
0.0122691
0.0133741
0.0144892
0.015609
0.0167273
0.017838
0.0189345
0.0200102
0.021059
0.0220748
0.0230521
0.023986
0.0248731
0.0257106
0.0264967
0.0272321
0.0279157
0.028548
0.0291298
0.0296608
0.0301399
0.0305641
0.0309289
0.0312291
0.0314593
0.0316147
0.0316927
0.031694
0.0316221
0.0314838
0.0312874
0.031043
0.030761
0.0304516
0.030124
0.029786
0.0294437
0.0291019
0.0287631
0.0284292
0.0281006
0.027777
0.0274581
0.0271428
0.0268302
0.0265197
0.0262101
0.0259011
0.025593
0.0252855
0.024979
0.0246739
0.0243713
0.0240712
0.0237757
0.0234855
0.0232026
0.0229278
0.0226626
0.0224087
0.0221666
0.0219381
0.0217241
0.0215257
0.0213437
0.021179
0.0210327
0.0209059
0.020799
0.0207126
0.0206468
0.0206024
0.0205792
-0.00482277
-0.00477483
-0.00468145
-0.00454282
-0.00435887
-0.00412953
-0.00385473
-0.00353436
-0.00316833
-0.00275654
-0.00229883
-0.00179507
-0.00124518
-0.000649152
-7.12069e-06
0.000680696
0.00141398
0.00219226
0.0030149
0.00388095
0.00478923
0.00573826
0.00672629
0.00775124
0.00880979
0.00989978
0.0110167
0.0121563
0.0133137
0.0144833
0.0156592
0.0168346
0.0180025
0.0191557
0.0202867
0.0213881
0.0224532
0.0234755
0.0244495
0.0253713
0.0262379
0.0270467
0.0278032
0.0285033
0.0291501
0.0297459
0.0302914
0.0307858
0.0312257
0.0316055
0.0319172
0.0321528
0.0323046
0.0323679
0.0323428
0.0322332
0.0320479
0.0317982
0.0314968
0.031157
0.0307918
0.0304122
0.0300276
0.0296448
0.0292683
0.0289008
0.0285428
0.0281948
0.0278552
0.0275228
0.0271961
0.0268727
0.026552
0.0262327
0.0259139
0.025595
0.0252763
0.0249577
0.0246402
0.0243243
0.0240104
0.0237008
0.0233965
0.0230993
0.0228101
0.0225308
0.0222629
0.022008
0.0217668
0.0215407
0.021331
0.0211387
0.0209646
0.0208099
0.0206755
0.0205623
0.0204708
0.0204011
0.0203539
0.0203288
-0.00548719
-0.00543824
-0.00534331
-0.00520254
-0.00501581
-0.00478301
-0.00450397
-0.00417855
-0.00380652
-0.00338766
-0.0029217
-0.00240836
-0.00184738
-0.00123862
-0.000582055
0.00012226
0.00087423
0.00167369
0.00252024
0.00341315
0.00435134
0.00533351
0.00635809
0.00742311
0.00852585
0.00966325
0.0108314
0.0120256
0.0132408
0.014471
0.0157095
0.0169488
0.0181812
0.0193985
0.020592
0.021753
0.0228734
0.023946
0.0249643
0.0259237
0.0268217
0.0276583
0.0284293
0.029143
0.0298022
0.0304108
0.0309712
0.0314834
0.0319439
0.032345
0.0326757
0.0329231
0.0330755
0.0331244
0.0330691
0.0329145
0.0326717
0.0323564
0.0319854
0.0315762
0.0311448
0.0307046
0.0302668
0.0298393
0.0294256
0.0290282
0.0286466
0.02828
0.0279259
0.0275816
0.0272447
0.0269125
0.026583
0.0262545
0.025926
0.0255965
0.0252665
0.0249356
0.0246047
0.0242743
0.0239459
0.0236208
0.0233009
0.0229878
0.0226828
0.0223881
0.0221049
0.0218352
0.02158
0.0213406
0.0211184
0.0209147
0.0207301
0.0205664
0.0204241
0.020304
0.0202068
0.0201328
0.0200825
0.0200555
-0.00619746
-0.00614759
-0.00605122
-0.00590847
-0.00571914
-0.00548305
-0.00519999
-0.00486968
-0.00449182
-0.00406609
-0.00359206
-0.00306925
-0.00249726
-0.00187581
-0.00120471
-0.000483793
0.00028717
0.00110833
0.00197951
0.00290016
0.00386943
0.00488633
0.00594959
0.0070574
0.00820725
0.00939596
0.0106197
0.0118737
0.0131525
0.0144497
0.015758
0.0170693
0.0183746
0.0196643
0.0209286
0.0221571
0.0233403
0.0244692
0.0255362
0.0265357
0.0274646
0.0283226
0.0291105
0.0298352
0.030503
0.0311215
0.0316961
0.0322288
0.0327162
0.0331483
0.033509
0.0337786
0.033939
0.0339751
0.033885
0.0336756
0.0333617
0.0329648
0.032508
0.0320142
0.0315036
0.0309936
0.0304957
0.0300188
0.029566
0.0291386
0.0287348
0.0283518
0.0279855
0.0276322
0.0272879
0.0269487
0.0266122
0.0262759
0.0259386
0.0255991
0.0252572
0.0249131
0.0245682
0.0242225
0.0238779
0.023536
0.0231988
0.0228683
0.0225457
0.0222335
0.0219337
0.0216477
0.0213772
0.0211232
0.0208871
0.0206707
0.0204749
0.0203012
0.0201503
0.0200227
0.0199192
0.0198405
0.0197867
0.0197578
-0.00695425
-0.00690355
-0.00680587
-0.0066613
-0.00646957
-0.00623043
-0.00594357
-0.00560863
-0.00522526
-0.00479297
-0.00431118
-0.00377921
-0.00319651
-0.00256266
-0.00187728
-0.00113984
-0.00034977
0.000493323
0.00138948
0.00233843
0.00333975
0.00439284
0.00549672
0.00664978
0.0078497
0.00909348
0.0103773
0.0116965
0.0130452
0.0144165
0.0158028
0.0171948
0.0185824
0.0199543
0.0212992
0.0226049
0.0238593
0.0250517
0.0261727
0.0272151
0.0281753
0.0290531
0.0298524
0.0305807
0.0312501
0.0318723
0.0324582
0.0330137
0.0335365
0.0340133
0.0344208
0.034729
0.0349104
0.0349371
0.0348068
0.0345291
0.0341253
0.0336257
0.0330617
0.0324642
0.0318592
0.0312673
0.0307025
0.0301727
0.0296803
0.0292244
0.0288009
0.0284053
0.0280311
0.0276726
0.0273242
0.0269813
0.02664
0.0262977
0.0259524
0.0256033
0.0252497
0.0248922
0.0245319
0.0241695
0.0238073
0.023447
0.0230905
0.0227405
0.0223987
0.0220676
0.0217492
0.021445
0.0211572
0.0208871
0.0206362
0.020406
0.0201978
0.0200131
0.0198527
0.0197171
0.0196069
0.0195231
0.0194657
0.0194348
-0.00775813
-0.00770669
-0.00760782
-0.0074616
-0.0072677
-0.00702576
-0.00673541
-0.00639625
-0.00600781
-0.00556945
-0.00508036
-0.00453974
-0.0039469
-0.00330126
-0.00260203
-0.00184836
-0.0010394
-0.00017455
0.00074655
0.0017241
0.0027582
0.00384865
0.00499476
0.00619523
0.0074481
0.00875063
0.0100991
0.0114889
0.0129142
0.0143677
0.0158408
0.0173235
0.0188041
0.0202697
0.0217069
0.023101
0.0244373
0.0257019
0.0268831
0.0279719
0.0289631
0.0298566
0.0306583
0.0313795
0.0320383
0.0326533
0.0332437
0.0338226
0.0343912
0.034933
0.0354133
0.0357857
0.0360099
0.0360335
0.0358557
0.035491
0.0349713
0.0343399
0.0336412
0.0329157
0.0321976
0.0315116
0.0308725
0.0302874
0.0297564
0.0292758
0.0288383
0.0284358
0.0280595
0.0277015
0.0273538
0.0270108
0.0266675
0.0263212
0.0259696
0.0256109
0.0252452
0.0248734
0.0244967
0.0241162
0.0237343
0.0233532
0.0229758
0.0226042
0.0222408
0.0218885
0.0215498
0.0212258
0.0209191
0.0206313
0.0203643
0.0201192
0.0198977
0.019701
0.0195301
0.0193856
0.0192684
0.0191791
0.0191179
0.0190849
-0.00860955
-0.00855743
-0.00845751
-0.00830984
-0.00811401
-0.0078696
-0.0075762
-0.00723336
-0.00684045
-0.00639662
-0.00590093
-0.00535248
-0.00475039
-0.00409366
-0.00338125
-0.00261198
-0.0017848
-0.00089878
4.6918e-05
0.00105307
0.00212029
0.00324881
0.00443838
0.00568812
0.00699653
0.00836125
0.00977893
0.0112451
0.0127541
0.0142981
0.0158679
0.0174523
0.0190384
0.0206113
0.0221546
0.0236509
0.0250819
0.0264301
0.0276798
0.028819
0.0298404
0.0307433
0.0315354
0.0322335
0.0328601
0.0334487
0.0340295
0.0346284
0.0352551
0.0358909
0.0364844
0.0369604
0.0372656
0.0372955
0.0370601
0.0365815
0.0359091
0.0351059
0.0342359
0.0333525
0.0324999
0.0317056
0.030986
0.0303454
0.0297803
0.0292817
0.0288385
0.0284383
0.0280683
0.0277177
0.0273771
0.0270391
0.0266976
0.0263499
0.0259924
0.0256247
0.0252465
0.024859
0.0244637
0.024063
0.0236597
0.0232558
0.0228547
0.0224594
0.0220724
0.0216966
0.021335
0.0209896
0.0206621
0.0203551
0.0200704
0.0198092
0.0195731
0.0193634
0.0191812
0.0190271
0.0189023
0.0188072
0.018742
0.0187067
-0.00950882
-0.0094561
-0.00935529
-0.0092064
-0.00900897
-0.00876254
-0.00846669
-0.00812082
-0.00772412
-0.00727563
-0.00677428
-0.00621901
-0.00560865
-0.00494188
-0.00421728
-0.00343347
-0.00258915
-0.0016829
-0.000713296
0.000321009
0.00142115
0.00258792
0.00382164
0.00512202
0.00648809
0.00791813
0.0094094
0.0109578
0.0125577
0.0142013
0.0158785
0.0175772
0.0192831
0.020979
0.0226452
0.0242606
0.0258028
0.0272489
0.0285782
0.0297736
0.0308241
0.0317274
0.0324922
0.0331401
0.0337038
0.0342344
0.0347786
0.0353856
0.0360826
0.0368537
0.0376237
0.0382641
0.0387165
0.0387652
0.038458
0.0378256
0.0369475
0.0359176
0.0348266
0.0337473
0.0327353
0.0318201
0.0310167
0.0303243
0.0297337
0.0292291
0.0287927
0.0284067
0.0280544
0.0277211
0.0273955
0.0270686
0.0267335
0.0263863
0.0260246
0.0256477
0.025256
0.0248515
0.024436
0.0240125
0.0235848
0.0231554
0.0227279
0.0223058
0.021892
0.0214905
0.0211039
0.0207346
0.0203849
0.0200571
0.0197529
0.0194742
0.0192224
0.0189987
0.0188044
0.0186402
0.018507
0.0184056
0.018336
0.0182983
-0.0104561
-0.0104029
-0.0103015
-0.0101517
-0.00995307
-0.00970522
-0.00940759
-0.00905942
-0.00865979
-0.00820764
-0.00770179
-0.00714091
-0.00652349
-0.0058479
-0.00511249
-0.00431557
-0.00345561
-0.00253044
-0.0015381
-0.000476701
0.000655535
0.00186009
0.00313798
0.00448963
0.00591489
0.00741295
0.00898192
0.0106182
0.0123163
0.0140687
0.0158652
0.0176923
0.0195343
0.0213715
0.023181
0.0249367
0.0266106
0.0281735
0.0295975
0.0308579
0.0319374
0.0328298
0.0335435
0.0341056
0.0345639
0.0349772
0.0354339
0.0360184
0.0367924
0.0377557
0.0388073
0.0397468
0.0403732
0.0404957
0.0400998
0.0392535
0.0380905
0.036757
0.0353815
0.0340619
0.0328623
0.0318153
0.0309297
0.0301963
0.0295959
0.029103
0.0286918
0.0283371
0.0280166
0.0277124
0.0274115
0.0271034
0.0267787
0.0264349
0.0260697
0.0256834
0.0252771
0.0248534
0.0244148
0.0239656
0.0235099
0.0230516
0.0225945
0.0221429
0.0216997
0.0212695
0.0208554
0.0204599
0.0200858
0.0197353
0.0194101
0.0191122
0.0188433
0.0186047
0.0183974
0.0182224
0.0180805
0.0179724
0.0178982
0.0178579
-0.0114516
-0.0113981
-0.0112962
-0.0111459
-0.0109467
-0.0106981
-0.0103995
-0.0100499
-0.00964833
-0.00919372
-0.00868465
-0.0081195
-0.00749649
-0.00681374
-0.0060693
-0.00526081
-0.00438729
-0.00344502
-0.00243176
-0.001345
-0.000182205
0.00105886
0.00238004
0.00378278
0.00526807
0.00683618
0.0084862
0.0102154
0.012019
0.0138898
0.0158179
0.017789
0.0197855
0.0217857
0.0237628
0.0256851
0.0275174
0.0292223
0.0307621
0.0321013
0.0332125
0.0340815
0.0347128
0.035136
0.0354108
0.0356269
0.0359085
0.0364035
0.0372401
0.038465
0.0399508
0.0413674
0.0423418
0.0425814
0.0420555
0.0408968
0.0393311
0.0375859
0.0358428
0.0342312
0.0328194
0.0316372
0.0306812
0.0299278
0.0293431
0.0288887
0.0285276
0.0282263
0.027956
0.0276946
0.0274335
0.0271488
0.0268397
0.026502
0.0261342
0.0257372
0.0253138
0.0248677
0.024403
0.0239243
0.0234373
0.022946
0.0224555
0.0219703
0.0214946
0.0210326
0.0205881
0.020164
0.019763
0.0193876
0.0190398
0.0187213
0.0184339
0.0181792
0.0179582
0.0177717
0.0176206
0.0175055
0.0174264
0.0173836
-0.0124953
-0.0124417
-0.0123396
-0.0121893
-0.0119901
-0.0117415
-0.0114427
-0.0110926
-0.0106904
-0.0102347
-0.0097238
-0.00915596
-0.00852916
-0.00784134
-0.00709026
-0.0062737
-0.00538763
-0.00443046
-0.00339876
-0.00228912
-0.00109818
0.000177174
0.00153984
0.00299261
0.00453781
0.00617692
0.00791029
0.00973666
0.0116524
0.0136513
0.0157235
0.0178552
0.0200274
0.0222156
0.0243892
0.0265105
0.0285359
0.030417
0.0321028
0.0335432
0.0346949
0.0355293
0.0360406
0.0362556
0.036245
0.0361306
0.0360812
0.0363448
0.0371724
0.0387298
0.0408844
0.0431029
0.044683
0.0451324
0.0444072
0.0427753
0.040631
0.0383273
0.0361158
0.0341587
0.0325195
0.0312138
0.0302159
0.0294793
0.0289495
0.0285713
0.0282939
0.0280745
0.0278785
0.0276802
0.0274637
0.0272142
0.0269258
0.0265955
0.0262243
0.0258148
0.0253713
0.024899
0.0244034
0.0238905
0.0233671
0.0228384
0.0223103
0.0217877
0.0212756
0.0207785
0.0203006
0.019845
0.0194146
0.019012
0.0186396
0.0182989
0.017992
0.0177202
0.0174844
0.0172857
0.0171249
0.0170024
0.0169183
0.0168729
-0.0135869
-0.0135333
-0.0134315
-0.0132817
-0.0130832
-0.0128353
-0.0125373
-0.012188
-0.0117864
-0.011331
-0.01082
-0.0102513
-0.00962287
-0.00893227
-0.00817681
-0.00735358
-0.00645922
-0.00549054
-0.00444368
-0.00331451
-0.00209881
-0.000792398
0.00060897
0.00210955
0.00371315
0.00542279
0.00724053
0.00916705
0.0112006
0.0133361
0.0155653
0.017875
0.0202457
0.0226505
0.0250555
0.0274158
0.0296787
0.0317822
0.0336579
0.0352354
0.0364481
0.0372433
0.0375939
0.0375134
0.0370728
0.0364189
0.0357907
0.0355301
0.0361388
0.0380552
0.0412294
0.0448298
0.0474724
0.0482832
0.0472314
0.0448662
0.0418866
0.0388332
0.0360517
0.0336993
0.0318395
0.0304496
0.0294656
0.0288066
0.02839
0.0281399
0.02799
0.027887
0.027792
0.0276757
0.0275194
0.0273115
0.0270467
0.0267247
0.0263486
0.0259231
0.0254547
0.0249509
0.0244186
0.0238662
0.0233009
0.0227295
0.0221584
0.0215938
0.0210411
0.0205051
0.0199903
0.0195002
0.0190378
0.0186061
0.018207
0.0178426
0.0175149
0.0172249
0.0169737
0.0167621
0.016591
0.0164608
0.0163716
0.0163235
-0.0147259
-0.0146726
-0.0145714
-0.0144227
-0.0142256
-0.0139794
-0.0136833
-0.0133361
-0.0129366
-0.0124831
-0.0119737
-0.0114064
-0.0107789
-0.0100882
-0.00933126
-0.00850492
-0.00760553
-0.0066291
-0.0055711
-0.00442665
-0.00319057
-0.00185736
-0.000421337
0.00112325
0.00278197
0.0045599
0.00646127
0.00848903
0.0106439
0.0129235
0.0153217
0.0178269
0.0204204
0.0230744
0.0257508
0.0283998
0.0309568
0.033345
0.0354741
0.0372456
0.0385596
0.0393266
0.0394815
0.039004
0.0379424
0.0364424
0.0347769
0.0334426
0.0333099
0.035464
0.0402003
0.046204
0.050739
0.0521581
0.0505382
0.0470262
0.0428556
0.0388288
0.0353756
0.0326298
0.0306077
0.0292223
0.0283499
0.0278627
0.0276427
0.0275893
0.0276217
0.0276778
0.0277141
0.0276992
0.0276163
0.0274565
0.0272176
0.0269022
0.026517
0.0260701
0.0255706
0.0250284
0.0244525
0.0238531
0.0232392
0.022619
0.0219992
0.0213873
0.0207892
0.0202101
0.0196549
0.0191272
0.0186303
0.018167
0.0177394
0.0173499
0.017
0.0166908
0.0164232
0.0161982
0.0160163
0.0158782
0.0157837
0.0157329
-0.0159119
-0.015859
-0.0157589
-0.0156118
-0.015417
-0.0151735
-0.0148804
-0.0145367
-0.0141408
-0.013691
-0.0131856
-0.0126222
-0.0119981
-0.0113103
-0.0105554
-0.00972983
-0.00882946
-0.00784969
-0.00678538
-0.00563083
-0.00437974
-0.00302525
-0.00156022
2.27213e-05
0.00173125
0.00357295
0.00555467
0.00768219
0.00995972
0.0123886
0.014966
0.0176833
0.0205242
0.023462
0.026457
0.0294533
0.0323769
0.0351328
0.0376049
0.0396586
0.0411479
0.0419281
0.0418723
0.0408967
0.0389884
0.0362243
0.0328072
0.0292916
0.027097
0.0287309
0.0355641
0.0456222
0.0538909
0.0565829
0.0540596
0.0488001
0.0430112
0.0378557
0.0336871
0.0306335
0.0285953
0.0273805
0.0267797
0.0266033
0.0266938
0.0269261
0.0272067
0.0274701
0.0276685
0.0277755
0.0277771
0.0276691
0.0274547
0.0271416
0.0267407
0.0262642
0.0257247
0.0251352
0.0245075
0.023853
0.0231829
0.022506
0.0218312
0.0211663
0.0205176
0.0198912
0.0192916
0.0187229
0.0181888
0.0176918
0.0172341
0.0168178
0.0164443
0.0161148
0.0158302
0.0155911
0.0153982
0.0152518
0.0151519
0.0150983
-0.0171441
-0.0170919
-0.0169934
-0.0168487
-0.0166568
-0.0164171
-0.0161284
-0.0157895
-0.0153989
-0.014955
-0.0144558
-0.0138989
-0.0132813
-0.0125997
-0.0118507
-0.0110301
-0.0101333
-0.00915539
-0.00809041
-0.00693185
-0.0056723
-0.00430363
-0.00281712
-0.00120346
0.000547317
0.00244548