/*--------------------------------*- C++ -*----------------------------------*\
| =========                 |                                                 |
| \\      /  F ield         | OpenFOAM: The Open Source CFD Toolbox           |
|  \\    /   O peration     | Version:  2312                                  |
|   \\  /    A nd           | Website:  www.openfoam.com                      |
|    \\/     M anipulation  |                                                 |
\*---------------------------------------------------------------------------*/
FoamFile
{
    version     2.0;
    format      ascii;
    arch        "LSB;label=32;scalar=64";
    class       surfaceScalarField;
    location    "0.45";
    object      phi;
}
// * * * * * * * * * * * * * * * * * * * * * * * * * * * * * * * * * * * * * //

dimensions      [0 3 -1 0 0 0 0];

oriented        oriented;

internalField   nonuniform List<scalar> 
19800
(
-1.41703e-14
6.14073e-15
-3.40957e-13
3.26871e-13
-8.74675e-13
5.34058e-13
-1.37572e-12
5.02055e-13
-1.75101e-12
3.76923e-13
-2.02882e-12
2.79506e-13
-2.29842e-12
2.70735e-13
-2.63499e-12
3.3689e-13
-3.06507e-12
4.29934e-13
-3.61903e-12
5.53954e-13
-4.31191e-12
6.93418e-13
-5.15539e-12
8.44499e-13
-6.15995e-12
1.00562e-12
-7.3355e-12
1.1762e-12
-8.69114e-12
1.35558e-12
-1.0235e-11
1.54305e-12
-1.19741e-11
1.73769e-12
-1.3914e-11
1.9381e-12
-1.60584e-11
2.14246e-12
-1.84081e-11
2.34816e-12
-2.0961e-11
2.55188e-12
-2.37111e-11
2.74952e-12
-2.66478e-11
2.93639e-12
-2.97553e-11
3.10724e-12
-3.30121e-11
3.25628e-12
-3.63897e-11
3.37705e-12
-3.98529e-11
3.46255e-12
-4.33588e-11
3.5054e-12
-4.68571e-11
3.4979e-12
-5.02895e-11
3.43213e-12
-5.35897e-11
3.30011e-12
-5.66839e-11
3.09406e-12
-5.94906e-11
2.80665e-12
-6.19215e-11
2.43082e-12
-6.38826e-11
1.96126e-12
-6.52768e-11
1.39471e-12
-6.60049e-11
7.29146e-13
-6.59753e-11
-2.80429e-14
-6.50734e-11
-9.00511e-13
-6.32284e-11
-1.8443e-12
-6.03594e-11
-2.86822e-12
-5.64039e-11
-3.95395e-12
-5.13217e-11
-5.08076e-12
-4.50973e-11
-6.22342e-12
-3.77418e-11
-7.35392e-12
-2.92963e-11
-8.44431e-12
-1.9837e-11
-9.4602e-12
-9.47105e-12
-1.03672e-11
1.6631e-12
-1.11332e-11
1.33887e-11
-1.17236e-11
2.55191e-11
-1.21286e-11
3.78369e-11
-1.23163e-11
5.0118e-11
-1.22801e-11
6.21348e-11
-1.2017e-11
7.36631e-11
-1.15303e-11
8.44966e-11
-1.08356e-11
9.44545e-11
-9.95786e-12
1.03371e-10
-8.91574e-12
1.11115e-10
-7.74476e-12
1.17595e-10
-6.47976e-12
1.22752e-10
-5.15674e-12
1.26564e-10
-3.812e-12
1.29043e-10
-2.47902e-12
1.30228e-10
-1.18651e-12
1.30189e-10
4.02677e-14
1.29016e-10
1.17622e-12
1.26809e-10
2.2066e-12
1.2369e-10
3.12064e-12
1.19783e-10
3.90885e-12
1.15212e-10
4.56932e-12
1.10112e-10
5.10222e-12
1.04601e-10
5.51095e-12
9.87952e-11
5.80392e-12
9.28036e-11
5.99023e-12
8.67247e-11
6.07884e-12
8.06432e-11
6.08178e-12
7.4634e-11
6.00915e-12
6.87584e-11
5.87512e-12
6.30686e-11
5.68881e-12
5.76064e-11
5.46101e-12
5.24036e-11
5.20123e-12
4.74819e-11
4.92287e-12
4.28499e-11
4.62837e-12
3.85257e-11
4.3291e-12
3.44936e-11
4.02618e-12
3.07645e-11
3.73035e-12
2.73218e-11
3.43915e-12
2.41536e-11
3.16244e-12
2.12571e-11
2.90048e-12
1.8607e-11
2.65113e-12
1.61864e-11
2.42282e-12
1.39666e-11
2.2194e-12
1.19243e-11
2.0419e-12
1.00389e-11
1.88777e-12
8.27547e-12
1.76361e-12
6.6069e-12
1.66719e-12
4.99344e-12
1.61212e-12
3.38435e-12
1.61228e-12
1.69296e-12
1.69505e-12
1.68991e-12
1.11819e-13
-1.05467e-13
-1.62661e-13
6.02223e-13
-9.12046e-13
1.28518e-12
-1.83096e-12
1.42353e-12
-2.6873e-12
1.23594e-12
-3.46563e-12
1.05977e-12
-4.24551e-12
1.05152e-12
-5.11693e-12
1.20858e-12
-6.16583e-12
1.47921e-12
-7.43925e-12
1.82835e-12
-8.9764e-12
2.23202e-12
-1.08087e-11
2.67818e-12
-1.29635e-11
3.16092e-12
-1.54643e-11
3.67643e-12
-1.83325e-11
4.22202e-12
-2.15867e-11
4.79456e-12
-2.52424e-11
5.39033e-12
-2.93117e-11
6.0045e-12
-3.38022e-11
6.63055e-12
-3.87156e-11
7.26007e-12
-4.40473e-11
7.88274e-12
-4.97847e-11
8.48629e-12
-5.59059e-11
9.05688e-12
-6.23786e-11
9.57905e-12
-6.91588e-11
1.00355e-11
-7.61899e-11
1.04071e-11
-8.34014e-11
1.06731e-11
-9.07086e-11
1.08117e-11
-9.80118e-11
1.08004e-11
-1.05196e-10
1.06164e-11
-1.12133e-10
1.02365e-11
-1.18678e-10
9.63865e-12
-1.24673e-10
8.80191e-12
-1.2995e-10
7.70833e-12
-1.34331e-10
6.34335e-12
-1.37632e-10
4.69776e-12
-1.39668e-10
2.76732e-12
-1.40253e-10
5.58419e-13
-1.3923e-10
-1.92095e-12
-1.36425e-10
-4.64863e-12
-1.31708e-10
-7.58333e-12
-1.24981e-10
-1.06795e-11
-1.16178e-10
-1.38804e-11
-1.05285e-10
-1.71152e-11
-9.23369e-11
-2.03018e-11
-7.74235e-11
-2.3357e-11
-6.06963e-11
-2.61865e-11
-4.23664e-11
-2.8697e-11
-2.26983e-11
-3.07994e-11
-2.00234e-12
-3.24154e-11
1.93492e-11
-3.34774e-11
4.09762e-11
-3.39442e-11
6.24748e-11
-3.37812e-11
8.34416e-11
-3.29849e-11
1.03486e-10
-3.15746e-11
1.22242e-10
-2.95935e-11
1.39386e-10
-2.7103e-11
1.5465e-10
-2.41792e-11
1.67821e-10
-2.0913e-11
1.78744e-10
-1.74025e-11
1.87333e-10
-1.37471e-11
1.93565e-10
-1.00447e-11
1.97476e-10
-6.38759e-12
1.99148e-10
-2.85844e-12
1.98715e-10
4.72728e-13
1.96348e-10
3.54837e-12
1.92238e-10
6.3205e-12
1.866e-10
8.76073e-12
1.79661e-10
1.08493e-11
1.71646e-10
1.25802e-11
1.62788e-10
1.3959e-11
1.53303e-10
1.49969e-11
1.43393e-10
1.57133e-11
1.33246e-10
1.6135e-11
1.23033e-10
1.62901e-11
1.12903e-10
1.62114e-11
1.02984e-10
1.59293e-11
9.33803e-11
1.54777e-11
8.41792e-11
1.48874e-11
7.54488e-11
1.419e-11
6.72395e-11
1.34084e-11
5.95884e-11
1.25767e-11
5.25058e-11
1.17067e-11
4.60096e-11
1.08275e-11
4.00883e-11
9.94367e-12
3.47324e-11
9.08142e-12
2.99311e-11
8.24397e-12
2.56514e-11
7.43988e-12
2.18679e-11
6.68047e-12
1.85489e-11
5.97251e-12
1.56543e-11
5.32066e-12
1.3139e-11
4.73657e-12
1.09611e-11
4.22078e-12
9.06667e-12
3.78064e-12
7.41201e-12
3.4193e-12
5.93727e-12
3.14377e-12
4.56929e-12
2.97676e-12
3.20336e-12
2.97525e-12
1.6705e-12
3.22877e-12
3.35934e-12
2.66592e-13
-3.71719e-13
4.07567e-13
4.62207e-13
8.48736e-14
1.6096e-12
-6.16969e-13
2.12776e-12
-1.49101e-12
2.11243e-12
-2.43436e-12
2.00499e-12
-3.44992e-12
2.06817e-12
-4.59034e-12
2.34954e-12
-5.92153e-12
2.81085e-12
-7.50013e-12
3.40754e-12
-9.37536e-12
4.10785e-12
-1.15897e-11
4.89279e-12
-1.41802e-11
5.75093e-12
-1.71795e-11
6.67432e-12
-2.06163e-11
7.65669e-12
-2.4515e-11
8.69094e-12
-2.88957e-11
9.76899e-12
-3.37742e-11
1.08814e-11
-3.916e-11
1.20154e-11
-4.50556e-11
1.31551e-11
-5.14559e-11
1.42822e-11
-5.83456e-11
1.53751e-11
-6.56992e-11
1.64094e-11
-7.34787e-11
1.73576e-11
-8.16329e-11
1.81888e-11
-9.0096e-11
1.8869e-11
-9.87858e-11
1.93615e-11
-1.07603e-10
1.96278e-11
-1.16431e-10
1.96278e-11
-1.25136e-10
1.93208e-11
-1.33566e-10
1.86656e-11
-1.4155e-10
1.76227e-11
-1.48904e-10
1.61553e-11
-1.55427e-10
1.42316e-11
-1.60909e-10
1.18257e-11
-1.6513e-10
8.92096e-12
-1.67872e-10
5.51078e-12
-1.68917e-10
1.60408e-12
-1.68065e-10
-2.77298e-12
-1.6512e-10
-7.5933e-12
-1.59923e-10
-1.27798e-11
-1.52351e-10
-1.82499e-11
-1.42328e-10
-2.39008e-11
-1.29833e-10
-2.96081e-11
-1.14907e-10
-3.52285e-11
-9.76584e-11
-4.06055e-11
-7.82631e-11
-4.558e-11
-5.69736e-11
-4.99854e-11
-3.41071e-11
-5.36657e-11
-1.00405e-11
-5.64813e-11
1.48006e-11
-5.83178e-11
3.99519e-11
-5.9096e-11
6.49317e-11
-5.8763e-11
8.92611e-11
-5.73149e-11
1.1248e-10
-5.47919e-11
1.34157e-10
-5.12692e-11
1.53913e-10
-4.68595e-11
1.71436e-10
-4.17015e-11
1.86481e-10
-3.59572e-11
1.9888e-10
-2.97997e-11
2.08537e-10
-2.34055e-11
2.15437e-10
-1.69461e-11
2.19633e-10
-1.05813e-11
2.21236e-10
-4.45716e-12
2.20404e-10
1.30496e-12
2.17355e-10
6.60195e-12
2.12317e-10
1.13619e-11
2.05546e-10
1.55311e-11
1.97315e-10
1.9081e-11
1.87889e-10
2.20027e-11
1.77537e-10
2.43081e-11
1.66514e-10
2.60202e-11
1.55054e-10
2.71736e-11
1.43372e-10
2.78146e-11
1.31666e-10
2.79956e-11
1.20103e-10
2.7773e-11
1.0883e-10
2.72034e-11
9.79648e-11
2.63434e-11
8.76052e-11
2.52472e-11
7.78268e-11
2.39671e-11
6.86839e-11
2.25544e-11
6.02086e-11
2.1049e-11
5.24291e-11
1.94914e-11
4.53471e-11
1.79072e-11
3.89493e-11
1.63424e-11
3.3229e-11
1.48011e-11
2.81514e-11
1.33152e-11
2.36973e-11
1.18962e-11
1.98202e-11
1.05567e-11
1.64793e-11
9.31313e-12
1.36296e-11
8.17145e-12
1.12193e-11
7.14508e-12
9.19622e-12
6.24113e-12
7.50991e-12
5.46803e-12
6.10104e-12
4.82808e-12
4.90534e-12
4.33851e-12
3.8412e-12
4.04304e-12
2.78094e-12
4.03642e-12
1.52856e-12
4.48452e-12
4.89159e-12
2.38443e-13
-6.09648e-13
5.67414e-13
1.34142e-13
6.42498e-13
1.53614e-12
3.39707e-13
2.43284e-12
-2.71725e-13
2.72629e-12
-1.09708e-12
2.83232e-12
-2.09171e-12
3.06398e-12
-3.26516e-12
3.5235e-12
-4.65384e-12
4.19965e-12
-6.30466e-12
5.05833e-12
-8.26437e-12
6.06732e-12
-1.05779e-11
7.20567e-12
-1.32862e-11
8.4579e-12
-1.64261e-11
9.81237e-12
-2.00302e-11
1.12589e-11
-2.41268e-11
1.27861e-11
-2.87399e-11
1.43814e-11
-3.38875e-11
1.60289e-11
-3.95819e-11
1.77095e-11
-4.5828e-11
1.94003e-11
-5.26214e-11
2.10741e-11
-5.99478e-11
2.27001e-11
-6.77824e-11
2.42429e-11
-7.60879e-11
2.56622e-11
-8.48133e-11
2.69129e-11
-9.38918e-11
2.79458e-11
-1.0324e-10
2.87075e-11
-1.12755e-10
2.91416e-11
-1.22317e-10
2.91892e-11
-1.31786e-10
2.87897e-11
-1.41003e-10
2.78822e-11
-1.49789e-10
2.64079e-11
-1.57947e-10
2.43117e-11
-1.6526e-10
2.15454e-11
-1.71504e-10
1.80697e-11
-1.76439e-10
1.3857e-11
-1.79824e-10
8.89692e-12
-1.81421e-10
3.19999e-12
-1.81001e-10
-3.1935e-12
-1.78343e-10
-1.02512e-11
-1.73265e-10
-1.78572e-11
-1.65621e-10
-2.58932e-11
-1.55314e-10
-3.4206e-11
-1.42307e-10
-4.26125e-11
-1.26634e-10
-5.09009e-11
-1.08399e-10
-5.88404e-11
-8.77918e-11
-6.61871e-11
-6.50782e-11
-7.26986e-11
-4.06058e-11
-7.81392e-11
-1.47897e-11
-8.22989e-11
1.18979e-11
-8.50056e-11
3.89473e-11
-8.61439e-11
6.58175e-11
-8.56319e-11
9.19728e-11
-8.34696e-11
1.169e-10
-7.97179e-11
1.40125e-10
-7.4492e-11
1.61229e-10
-6.79631e-11
1.7987e-10
-6.03418e-11
1.95784e-10
-5.18711e-11
2.08796e-10
-4.28104e-11
2.18815e-10
-3.34233e-11
2.25832e-10
-2.39645e-11
2.29921e-10
-1.46691e-11
2.31218e-10
-5.74923e-12
2.29914e-10
2.61268e-12
2.26246e-10
1.02724e-11
2.20479e-10
1.71285e-11
2.12901e-10
2.31067e-11
2.03811e-10
2.817e-11
1.93505e-10
3.23097e-11
1.82268e-10
3.55439e-11
1.70374e-10
3.7912e-11
1.5808e-10
3.94687e-11
1.45608e-10
4.02826e-11
1.3317e-10
4.04345e-11
1.20938e-10
4.00053e-11
1.09064e-10
3.90795e-11
9.76679e-11
3.77397e-11
8.68517e-11
3.60663e-11
7.66826e-11
3.41332e-11
6.72224e-11
3.20192e-11
5.84976e-11
2.9771e-11
5.05309e-11
2.74587e-11
4.33155e-11
2.51243e-11
3.68444e-11
2.28076e-11
3.11023e-11
2.05471e-11
2.60517e-11
1.8366e-11
2.16546e-11
1.6289e-11
1.78677e-11
1.43407e-11
1.46454e-11
1.25329e-11
1.19342e-11
1.08811e-11
9.68299e-12
9.39771e-12
7.8366e-12
8.0899e-12
6.34115e-12
6.96419e-12
5.13723e-12
6.03419e-12
4.15997e-12
5.31731e-12
3.32106e-12
4.88241e-12
2.48822e-12
4.87184e-12
1.42673e-12
5.54414e-12
6.32201e-12
1.10147e-13
-7.19257e-13
3.91862e-13
-1.47205e-13
6.52366e-13
1.27679e-12
6.73251e-13
2.41391e-12
3.83589e-13
3.0182e-12
-1.8587e-13
3.40363e-12
-9.97806e-13
3.87697e-12
-2.04076e-12
4.56674e-12
-3.3341e-12
5.49281e-12
-4.91038e-12
6.63422e-12
-6.81183e-12
7.9681e-12
-9.08003e-12
9.47275e-12
-1.17557e-11
1.1132e-11
-1.48774e-11
1.29325e-11
-1.84796e-11
1.48602e-11
-2.25938e-11
1.69003e-11
-2.72465e-11
1.90348e-11
-3.24603e-11
2.1243e-11
-3.82506e-11
2.34992e-11
-4.46251e-11
2.5773e-11
-5.15829e-11
2.80298e-11
-5.91134e-11
3.02288e-11
-6.71952e-11
3.23235e-11
-7.5795e-11
3.42609e-11
-8.48652e-11
3.59816e-11
-9.4342e-11
3.74206e-11
-1.04144e-10
3.85075e-11
-1.1417e-10
3.91669e-11
-1.24301e-10
3.93197e-11
-1.34396e-10
3.88839e-11
-1.44292e-10
3.77775e-11
-1.53805e-10
3.59198e-11
-1.62729e-10
3.32351e-11
-1.70838e-10
2.96549e-11
-1.7789e-10
2.51229e-11
-1.83631e-10
1.95981e-11
-1.87797e-10
1.3062e-11
-1.90121e-10
5.52336e-12
-1.90347e-10
-2.96897e-12
-1.88227e-10
-1.23722e-11
-1.83541e-10
-2.25421e-11
-1.76114e-10
-3.33192e-11
-1.6582e-10
-4.44994e-11
-1.52595e-10
-5.58355e-11
-1.36453e-10
-6.70415e-11
-1.17494e-10
-7.78007e-11
-9.59019e-11
-8.77811e-11
-7.19614e-11
-9.66399e-11
-4.60443e-11
-1.04057e-10
-1.86074e-11
-1.09736e-10
9.82436e-12
-1.13437e-10
3.86907e-11
-1.15008e-10
6.73797e-11
-1.14318e-10
9.52913e-11
-1.1138e-10
1.2185e-10
-1.06277e-10
1.46528e-10
-9.91702e-11
1.68866e-10
-9.02997e-11
1.88487e-10
-7.9962e-11
2.05109e-10
-6.84924e-11
2.18549e-10
-5.62497e-11
2.28726e-10
-4.35984e-11
2.3565e-10
-3.08867e-11
2.39416e-10
-1.84346e-11
2.40193e-10
-6.52449e-12
2.3821e-10
4.597e-12
2.3374e-10
1.47433e-11
2.27086e-10
2.3782e-11
2.18569e-10
3.16222e-11
2.08521e-10
3.8219e-11
1.97264e-10
4.35685e-11
1.85109e-10
4.77003e-11
1.72344e-10
5.06731e-11
1.59243e-10
5.25689e-11
1.46041e-10
5.34829e-11
1.32953e-10
5.35244e-11
1.20153e-10
5.28052e-11
1.07797e-10
5.14385e-11
9.60007e-11
4.95351e-11
8.48623e-11
4.72038e-11
7.44501e-11
4.45458e-11
6.48113e-11
4.16546e-11
5.59763e-11
3.86086e-11
4.79465e-11
3.54815e-11
4.07291e-11
3.23417e-11
3.43021e-11
2.92355e-11
2.86307e-11
2.62148e-11
2.36914e-11
2.33053e-11
1.94255e-11
2.05551e-11
1.57922e-11
1.79713e-11
1.27406e-11
1.5586e-11
1.02097e-11
1.34105e-11
8.15261e-12
1.14543e-11
6.50938e-12
9.73558e-12
5.2174e-12
8.25876e-12
4.22494e-12
7.02858e-12
3.46394e-12
6.08031e-12
2.8422e-12
5.50213e-12
2.21808e-12
5.49648e-12
1.33849e-12
6.42486e-12
7.65886e-12
1.84864e-14
-7.37561e-13
2.20926e-13
-3.50194e-13
5.53987e-13
9.44229e-13
7.91504e-13
2.1779e-12
7.84984e-13
3.02664e-12
4.97471e-13
3.69274e-12
-6.19726e-14
4.4373e-12
-8.88507e-13
5.39354e-12
-1.9944e-12
6.59864e-12
-3.40726e-12
8.04683e-12
-5.16186e-12
9.7221e-12
-7.29933e-12
1.16092e-11
-9.85839e-12
1.36899e-11
-1.28778e-11
1.59512e-11
-1.63941e-11
1.83769e-11
-2.04417e-11
2.0949e-11
-2.50516e-11
2.36458e-11
-3.02498e-11
2.64411e-11
-3.60561e-11
2.93036e-11
-4.2483e-11
3.21972e-11
-4.95348e-11
3.5079e-11
-5.72064e-11
3.78986e-11
-6.54824e-11
4.05985e-11
-7.43355e-11
4.31129e-11
-8.37234e-11
4.53683e-11
-9.35875e-11
4.72833e-11
-1.03851e-10
4.87695e-11
-1.14416e-10
4.97316e-11
-1.25166e-10
5.0069e-11
-1.3596e-10
4.96771e-11
-1.46633e-10
4.84499e-11
-1.56996e-10
4.62823e-11
-1.66834e-10
4.30737e-11
-1.75911e-10
3.87317e-11
-1.83967e-10
3.31792e-11
-1.90725e-10
2.6356e-11
-1.95895e-10
1.82305e-11
-1.99177e-10
8.80492e-12
-2.00281e-10
-1.86619e-12
-1.98917e-10
-1.37377e-11
-1.9482e-10
-2.66374e-11
-1.87773e-10
-4.03644e-11
-1.77608e-10
-5.46635e-11
-1.64226e-10
-6.92176e-11
-1.4761e-10
-8.36581e-11
-1.27841e-10
-9.75717e-11
-1.05108e-10
-1.10516e-10
-7.97033e-11
-1.22045e-10
-5.20362e-11
-1.31722e-10
-2.26085e-11
-1.39161e-10
7.99328e-12
-1.44037e-10
3.90968e-11
-1.46109e-10
7.00407e-11
-1.4526e-10
1.00129e-10
-1.41467e-10
1.28702e-10
-1.3485e-10
1.5516e-10
-1.25629e-10
1.78987e-10
-1.14125e-10
1.99763e-10
-1.00736e-10
2.17183e-10
-8.59123e-11
2.31065e-10
-7.01306e-11
2.41334e-10
-5.38672e-11
2.48029e-10
-3.75802e-11
2.51281e-10
-2.16861e-11
2.513e-10
-6.54423e-12
2.4837e-10
7.52631e-12
2.42811e-10
2.03033e-11
2.34974e-10
3.16198e-11
2.25227e-10
4.13705e-11
2.13939e-10
4.95088e-11
2.01468e-10
5.60401e-11
1.88153e-10
6.1015e-11
1.74307e-10
6.45175e-11
1.60216e-10
6.66588e-11
1.46132e-10
6.75682e-11
1.3227e-10
6.73878e-11
1.18809e-10
6.62638e-11
1.059e-10
6.43447e-11
9.36645e-11
6.17727e-11
8.21798e-11
5.86826e-11
7.15195e-11
5.52075e-11
6.17154e-11
5.14549e-11
5.27853e-11
4.75366e-11
4.4734e-11
4.35346e-11
3.75507e-11
3.95226e-11
3.11976e-11
3.55848e-11
2.56545e-11
3.17589e-11
2.08562e-11
2.81034e-11
1.67732e-11
2.46376e-11
1.33359e-11
2.14069e-11
1.04974e-11
1.84249e-11
8.19492e-12
1.57093e-11
6.37215e-12
1.32772e-11
4.96699e-12
1.11397e-11
3.92331e-12
9.3011e-12
3.18219e-12
7.77301e-12
2.67094e-12
6.59337e-12
2.3022e-12
5.87454e-12
1.91408e-12
5.88086e-12
1.23909e-12
7.1044e-12
8.90483e-12
8.95699e-15
-7.47011e-13
2.12066e-13
-5.54653e-13
6.19115e-13
5.37209e-13
1.02771e-12
1.77049e-12
1.26281e-12
2.79321e-12
1.24638e-12
3.71063e-12
9.5772e-13
4.72693e-12
3.85613e-13
5.96625e-12
-4.83329e-13
7.46796e-12
-1.6769e-12
9.24048e-12
-3.2301e-12
1.1275e-11
-5.17931e-12
1.35577e-11
-7.56537e-12
1.60756e-11
-1.04284e-11
1.88146e-11
-1.38071e-11
2.17569e-11
-1.77398e-11
2.48829e-11
-2.22613e-11
2.81675e-11
-2.74027e-11
3.1581e-11
-3.31898e-11
3.50878e-11
-3.96409e-11
3.8645e-11
-4.67669e-11
4.22025e-11
-5.45705e-11
4.57008e-11
-6.30441e-11
4.90715e-11
-7.21679e-11
5.22364e-11
-8.19074e-11
5.51072e-11
-9.22108e-11
5.75861e-11
-1.03007e-10
5.95655e-11
-1.14206e-10
6.09294e-11
-1.25692e-10
6.15544e-11
-1.37326e-10
6.13111e-11
-1.48943e-10
6.00666e-11
-1.60348e-10
5.76873e-11
-1.71317e-10
5.40437e-11
-1.81601e-10
4.90151e-11
-1.90918e-10
4.24964e-11
-1.98967e-10
3.4404e-11
-2.05424e-10
2.46855e-11
-2.09949e-10
1.33288e-11
-2.12202e-10
3.86563e-13
-2.11848e-10
-1.40921e-11
-2.0856e-10
-2.99242e-11
-2.02062e-10
-4.68603e-11
-1.92132e-10
-6.45935e-11
-1.78619e-10
-8.27328e-11
-1.61464e-10
-1.00815e-10
-1.40724e-10
-1.18313e-10
-1.16577e-10
-1.34663e-10
-8.93377e-11
-1.49284e-10
-5.945e-11
-1.61608e-10
-2.74928e-11
-1.71116e-10
5.84851e-12
-1.77377e-10
3.98628e-11
-1.80123e-10
7.37075e-11
-1.79104e-10
1.06588e-10
-1.74348e-10
1.37737e-10
-1.66e-10
1.66458e-10
-1.54351e-10
1.92158e-10
-1.39824e-10
2.14367e-10
-1.22944e-10
2.32755e-10
-1.04299e-10
2.47132e-10
-8.45066e-11
2.57446e-10
-6.41823e-11
2.63773e-10
-4.39082e-11
2.66295e-10
-2.4209e-11
2.65283e-10
-5.53136e-12
2.61086e-10
1.17231e-11
2.54092e-10
2.73003e-11
2.44712e-10
4.10006e-11
2.33373e-10
5.27095e-11
2.20494e-10
6.23873e-11
2.0648e-10
7.00563e-11
1.91702e-10
7.57928e-11
1.765e-10
7.97168e-11
1.6118e-10
8.19769e-11
1.46006e-10
8.27425e-11
1.31199e-10
8.21958e-11
1.16938e-10
8.05237e-11
1.03373e-10
7.79086e-11
9.06125e-11
7.45305e-11
7.87328e-11
7.05595e-11
6.77884e-11
6.61487e-11
5.78089e-11
6.14389e-11
4.87945e-11
5.65473e-11
4.07377e-11
5.15867e-11
3.36053e-11
4.66578e-11
2.73693e-11
4.18212e-11
2.19767e-11
3.71521e-11
1.73872e-11
3.26908e-11
1.35299e-11
2.84944e-11
1.03485e-11
2.45853e-11
7.78034e-12
2.0995e-11
5.75755e-12
1.77379e-11
4.22363e-12
1.48153e-11
3.11447e-12
1.22536e-11
2.37108e-12
1.0047e-11
1.92972e-12
8.21577e-12
1.71714e-12
6.80222e-12
1.64663e-12
5.94717e-12
1.5468e-12
5.98409e-12
1.11246e-12
7.53997e-12
1.00115e-11
6.80508e-14
-8.16181e-13
3.69214e-13
-8.5732e-13
9.02216e-13
4.25777e-15
1.49008e-12
1.1838e-12
1.957e-12
2.32792e-12
2.20573e-12
3.46342e-12
2.19486e-12
4.73901e-12
1.90304e-12
6.25902e-12
1.30235e-12
8.06929e-12
3.6512e-13
1.01779e-11
-9.4169e-13
1.25815e-11
-2.65671e-12
1.52725e-11
-4.824e-12
1.8243e-11
-7.48585e-12
2.14773e-11
-1.06848e-11
2.49569e-11
-1.44628e-11
2.86612e-11
-1.88602e-11
3.25639e-11
-2.3914e-11
3.66322e-11
-2.96559e-11
4.08264e-11
-3.61129e-11
4.5099e-11
-4.33042e-11
4.93919e-11
-5.12418e-11
5.36378e-11
-5.99277e-11
5.77577e-11
-6.93518e-11
6.16609e-11
-7.9489e-11
6.52445e-11
-9.02971e-11
6.83935e-11
-1.01714e-10
7.09811e-11
-1.13654e-10
7.28696e-11
-1.2601e-10
7.39106e-11
-1.38646e-10
7.39474e-11
-1.51396e-10
7.28166e-11
-1.64061e-10
7.03523e-11
-1.76408e-10
6.63911e-11
-1.88172e-10
6.07779e-11
-1.99049e-10
5.3373e-11
-2.08706e-10
4.40606e-11
-2.1678e-10
3.27583e-11
-2.22884e-10
1.94318e-11
-2.26607e-10
4.10941e-12
-2.27581e-10
-1.31172e-11
-2.25372e-10
-3.21319e-11
-2.19643e-10
-5.25891e-11
-2.10093e-10
-7.41447e-11
-1.96502e-10
-9.63268e-11
-1.78754e-10
-1.18565e-10
-1.56863e-10
-1.40204e-10
-1.30998e-10
-1.60527e-10
-1.01486e-10
-1.78795e-10
-6.88245e-11
-1.94269e-10
-3.36643e-11
-2.06276e-10
3.21365e-12
-2.14254e-10
4.08521e-11
-2.17761e-10
7.83718e-11
-2.16624e-10
1.14791e-10
-2.10768e-10
1.49193e-10
-2.00403e-10
1.80758e-10
-1.85916e-10
2.0879e-10
-1.67857e-10
2.32758e-10
-1.46912e-10
2.52298e-10
-1.23838e-10
2.67223e-10
-9.94302e-11
2.77512e-10
-7.44706e-11
2.83291e-10
-4.96893e-11
2.84821e-10
-2.57384e-11
2.82435e-10
-3.14327e-12
2.76593e-10
1.75637e-11
2.67752e-10
3.61414e-11
2.5641e-10
5.23428e-11
2.43064e-10
6.60551e-11
2.28198e-10
7.72531e-11
2.12267e-10
8.59887e-11
1.95687e-10
9.23736e-11
1.7883e-10
9.65721e-11
1.62019e-10
9.87841e-11
1.45535e-10
9.92276e-11
1.296e-10
9.81308e-11
1.14394e-10
9.57258e-11
1.00063e-10
9.2242e-11
8.67011e-11
8.78907e-11
7.43747e-11
8.28886e-11
6.31262e-11
7.73966e-11
5.2957e-11
7.16019e-11
4.38676e-11
6.56391e-11
3.58232e-11
5.96333e-11
2.87909e-11
5.36878e-11
2.27194e-11
4.78919e-11
1.75486e-11
4.23225e-11
1.32018e-11
3.70384e-11
9.63161e-12
3.2066e-11
6.75707e-12
2.74609e-11
4.5184e-12
2.32333e-11
2.84829e-12
1.94098e-11
1.66463e-12
1.60056e-11
9.05974e-13
1.3008e-11
5.18961e-13
1.04349e-11
4.34313e-13
8.29765e-12
5.86235e-13
6.65199e-12
8.6407e-13
5.66512e-12
1.10223e-12
5.74081e-12
9.56231e-13
7.69252e-12
1.09753e-11
1.69287e-13
-9.86761e-13
6.43118e-13
-1.33203e-12
1.36868e-12
-7.20788e-13
2.17294e-12
3.80955e-13
2.89162e-12
1.61096e-12
3.41954e-12
2.93708e-12
3.70473e-12
4.45509e-12
3.71203e-12
6.25257e-12
3.41217e-12
8.36949e-12
2.77118e-12
1.08187e-11
1.75057e-12
1.36018e-11
3.07194e-13
1.67157e-11
-1.59854e-12
2.0149e-11
-4.01542e-12
2.38946e-11
-6.99111e-12
2.79326e-11
-1.05741e-11
3.22432e-11
-1.48095e-11
3.67974e-11
-1.97413e-11
4.15611e-11
-2.54102e-11
4.64923e-11
-3.18515e-11
5.1538e-11
-3.90954e-11
5.66349e-11
-4.71648e-11
6.17077e-11
-5.60732e-11
6.66674e-11
-6.58227e-11
7.14111e-11
-7.64001e-11
7.58214e-11
-8.77746e-11
7.97665e-11
-9.98946e-11
8.30999e-11
-1.12686e-10
8.56607e-11
-1.26048e-10
8.72737e-11
-1.39851e-10
8.77515e-11
-1.53932e-10
8.68973e-11
-1.68089e-10
8.45084e-11
-1.8208e-10
8.03816e-11
-1.95623e-10
7.43201e-11
-2.08391e-10
6.61405e-11
-2.20016e-10
5.56858e-11
-2.30088e-10
4.28299e-11
-2.38164e-10
2.75064e-11
-2.43767e-10
9.7128e-12
-2.46432e-10
-1.04507e-11
-2.45654e-10
-3.29099e-11
-2.40986e-10
-5.72592e-11
-2.32027e-10
-8.31054e-11
-2.18463e-10
-1.09892e-10
-2.00099e-10
-1.3693e-10
-1.7689e-10
-1.63412e-10
-1.48977e-10
-1.88439e-10
-1.16706e-10
-2.11065e-10
-8.06284e-11
-2.30346e-10
-4.1504e-11
-2.45401e-10
-2.73344e-13
-2.55485e-10
4.19968e-11
-2.60031e-10
8.41262e-11
-2.58752e-10
1.24979e-10
-2.5162e-10
1.63442e-10
-2.38867e-10
1.9853e-10
-2.21004e-10
2.29426e-10
-1.98754e-10
2.55514e-10
-1.73e-10
2.76396e-10
-1.44721e-10
2.91896e-10
-1.1493e-10
3.02039e-10
-8.46119e-11
3.07026e-10
-5.46749e-11
3.07207e-10
-2.59174e-11
3.03055e-10
1.00921e-12
2.95093e-10
2.55221e-11
2.83916e-10
4.73173e-11
2.70119e-10
6.61413e-11
2.54289e-10
8.18872e-11
2.36984e-10
9.45584e-11
2.1872e-10
1.04249e-10
1.99967e-10
1.11127e-10
1.81131e-10
1.15411e-10
1.62556e-10
1.1736e-10
1.44531e-10
1.17251e-10
1.27287e-10
1.15375e-10
1.10999e-10
1.12013e-10
9.57992e-11
1.0744e-10
8.17702e-11
1.0192e-10
6.89624e-11
9.56921e-11
5.73888e-11
8.89747e-11
4.70437e-11
8.19456e-11
3.79016e-11
7.47783e-11
2.99158e-11
6.76172e-11
2.30282e-11
6.05769e-11
1.71697e-11
5.37547e-11
1.22654e-11
4.72237e-11
8.24971e-12
4.1055e-11
5.03315e-12
3.52805e-11
2.54555e-12
2.99511e-11
6.98505e-13
2.50835e-11
-5.71489e-13
2.06806e-11
-1.33762e-12
1.67701e-11
-1.67497e-12
1.33411e-11
-1.64245e-12
1.04047e-11
-1.30884e-12
7.96231e-12
-7.49752e-13
6.09105e-12
-5.61639e-14
4.97637e-12
5.8087e-13
5.11076e-12
7.75187e-13
7.49765e-12
1.17516e-11
2.94968e-13
-1.28261e-12
9.986e-13
-2.03553e-12
1.97523e-12
-1.69633e-12
3.04361e-12
-6.85823e-13
4.04504e-12
6.11184e-13
4.88078e-12
2.10268e-12
5.4889e-12
3.84777e-12
5.82902e-12
5.9126e-12
5.86421e-12
8.33392e-12
5.55573e-12
1.11266e-11
4.86169e-12
1.42953e-11
3.73917e-12
1.78378e-11
2.13815e-12
2.17496e-11
1.09384e-14
2.60211e-11
-2.69772e-12
3.06401e-11
-6.03786e-12
3.55817e-11
-1.00662e-11
4.08235e-11
-1.48351e-11
4.63276e-11
-2.03942e-11
5.20493e-11
-2.679e-11
5.79328e-11
-3.40644e-11
6.39096e-11
-4.22533e-11
6.98979e-11
-5.13842e-11
7.57993e-11
-6.14737e-11
8.15e-11
-7.2523e-11
8.68686e-11
-8.45154e-11
9.17566e-11
-9.74136e-11
9.5997e-11
-1.11157e-10
9.94044e-11
-1.25658e-10
1.01775e-10
-1.40794e-10
1.02888e-10
-1.56408e-10
1.0251e-10
-1.72297e-10
1.00397e-10
-1.88215e-10
9.62986e-11
-2.03862e-10
8.99673e-11
-2.18889e-10
8.11668e-11
-2.32887e-10
6.9684e-11
-2.45399e-10
5.53416e-11
-2.5591e-10
3.80176e-11
-2.63866e-10
1.76678e-11
-2.68696e-10
-5.62139e-12
-2.69791e-10
-3.18151e-11
-2.66571e-10
-6.04817e-11
-2.58505e-10
-9.11728e-11
-2.45153e-10
-1.23245e-10
-2.26205e-10
-1.55878e-10
-2.01534e-10
-1.88083e-10
-1.71232e-10
-2.18741e-10
-1.35652e-10
-2.46647e-10
-9.54119e-11
-2.70587e-10
-5.14008e-11
-2.89411e-10
-4.75064e-12
-3.02134e-10
4.32277e-11
-3.08009e-10
9.1128e-11
-3.06653e-10
1.37502e-10
-2.97995e-10
1.80997e-10
-2.82364e-10
2.20417e-10
-2.60424e-10
2.54784e-10
-2.33121e-10
2.83389e-10
-2.01604e-10
3.058e-10
-1.67132e-10
3.21859e-10
-1.30991e-10
3.31666e-10
-9.44169e-11
3.35524e-10
-5.8532e-11
3.33911e-10
-2.43037e-11
3.27454e-10
7.46815e-12
3.16808e-10
3.61655e-11
3.02707e-10
6.14185e-11
2.85874e-10
8.29781e-11
2.67004e-10
1.0076e-10
2.46745e-10
1.14817e-10
2.2569e-10
1.25305e-10
2.04357e-10
1.32459e-10
1.83193e-10
1.36577e-10
1.62564e-10
1.3799e-10
1.4277e-10
1.37048e-10
1.24037e-10
1.34106e-10
1.06537e-10
1.29513e-10
9.03843e-11
1.23591e-10
7.56271e-11
1.16675e-10
6.23137e-11
1.09006e-10
5.04257e-11
1.00858e-10
3.99345e-11
9.2433e-11
3.07889e-11
8.39258e-11
2.29161e-11
7.54884e-11
1.62352e-11
6.72538e-11
1.06652e-11
5.93232e-11
6.11654e-12
5.17748e-11
2.50026e-12
4.4677e-11
-2.91429e-13
3.80731e-11
-2.32804e-12
3.19897e-11
-3.69682e-12
2.6451e-11
-4.48749e-12
2.14753e-11
-4.76846e-12
1.70555e-11
-4.61879e-12
1.31925e-11
-4.10743e-12
9.88951e-12
-3.29857e-12
7.1574e-12
-2.26588e-12
5.05854e-12
-1.10628e-12
3.81468e-12
-2.4317e-14
4.02686e-12
5.66508e-13
6.91004e-12
1.23169e-11
4.38172e-13
-1.72094e-12
1.41263e-12
-3.00903e-12
2.68787e-12
-2.97019e-12
4.06956e-12
-2.06602e-12
5.39778e-12
-7.15777e-13
6.57684e-12
9.24297e-13
7.54201e-12
2.88255e-12
8.24937e-12
5.20457e-12
8.65783e-12
7.92455e-12
8.72498e-12
1.10586e-11
8.40566e-12
1.46139e-11
7.6497e-12
1.85929e-11
6.40391e-12
2.29941e-11
4.61583e-12
2.78074e-11
2.23024e-12
3.30238e-11
-8.17739e-13
3.86278e-11
-4.58659e-12
4.45905e-11
-9.14053e-12
5.08798e-11
-1.45435e-11
5.74511e-11
-2.0852e-11
6.42415e-11
-2.81221e-11
7.1181e-11
-3.64052e-11
7.81822e-11
-4.57452e-11
8.51391e-11
-5.61747e-11
9.19273e-11
-6.77127e-11
9.84035e-11
-8.03603e-11
1.04402e-10
-9.4099e-11
1.09735e-10
-1.08886e-10
1.14191e-10
-1.24648e-10
1.17538e-10
-1.41279e-10
1.19519e-10
-1.58628e-10
1.19859e-10
-1.76499e-10
1.18267e-10
-1.94641e-10
1.1444e-10
-2.12744e-10
1.08071e-10
-2.30434e-10
9.88563e-11
-2.47264e-10
8.65144e-11
-2.62722e-10
7.07992e-11
-2.76218e-10
5.15129e-11
-2.87103e-10
2.85513e-11
-2.94672e-10
1.94502e-12
-2.98211e-10
-2.82772e-11
-2.96952e-10
-6.17412e-11
-2.90204e-10
-9.79224e-11
-2.77354e-10
-1.36095e-10
-2.57939e-10
-1.75293e-10
-2.31702e-10
-2.14319e-10
-1.98661e-10
-2.51782e-10
-1.59154e-10
-2.86154e-10
-1.13875e-10
-3.15867e-10
-6.38736e-11
-3.39412e-10
-1.05216e-11
-3.55484e-10
4.45653e-11
-3.63096e-10
9.96146e-11
-3.61703e-10
1.52835e-10
-3.51214e-10
2.02537e-10
-3.32065e-10
2.47248e-10
-3.05136e-10
2.85795e-10
-2.71669e-10
3.17351e-10
-2.3316e-10
3.41457e-10
-1.91236e-10
3.57997e-10
-1.47533e-10
3.67175e-10
-1.03595e-10
3.69445e-10
-6.08033e-11
3.65446e-10
-2.03038e-11
3.56014e-10
1.69056e-11
3.41981e-10
5.02009e-11
3.24245e-10
7.91538e-11
3.03684e-10
1.0354e-10
2.8113e-10
1.2332e-10
2.57332e-10
1.38617e-10
2.32966e-10
1.49672e-10
2.0861e-10
1.56816e-10
1.84749e-10
1.60441e-10
1.61765e-10
1.6097e-10
1.39969e-10
1.58845e-10
1.19578e-10
1.54497e-10
1.00749e-10
1.48336e-10
8.35639e-11
1.40782e-10
6.80662e-11
1.32167e-10
5.42477e-11
1.22826e-10
4.20815e-11
1.13022e-10
3.14887e-11
1.03025e-10
2.24062e-11
9.30093e-11
1.47227e-11
8.31749e-11
8.34358e-12
7.3638e-11
3.15306e-12
6.45159e-11
-9.65299e-13
5.58911e-11
-4.1025e-12
4.78139e-11
-6.36355e-12
4.03323e-11
-7.86079e-12
3.34832e-11
-8.67882e-12
2.72732e-11
-8.90775e-12
2.17048e-11
-8.63477e-12
1.67785e-11
-7.93104e-12
1.24903e-11
-6.87219e-12
8.82804e-12
-5.52648e-12
5.80664e-12
-3.95971e-12
3.4892e-12
-2.29035e-12
2.14872e-12
-7.03615e-13
2.44592e-12
3.17481e-13
5.89197e-12
1.26378e-11
5.92676e-13
-2.31314e-12
1.87051e-12
-4.2857e-12
3.49257e-12
-4.59106e-12
5.23167e-12
-3.80409e-12
6.93106e-12
-2.41457e-12
8.49218e-12
-6.36901e-13
9.85462e-12
1.5194e-12
1.09695e-11
4.08872e-12
1.17938e-11
7.09948e-12
1.22818e-11
1.05699e-11
1.23845e-11
1.45104e-11
1.20489e-11
1.89269e-11
1.12193e-11
2.38216e-11
9.83304e-12
2.91914e-11
7.82503e-12
3.50297e-11
5.13005e-12
4.13209e-11
1.67692e-12
4.80421e-11
-2.60672e-12
5.51624e-11
-7.78939e-12
6.26337e-11
-1.39546e-11
7.04077e-11
-2.1171e-11
7.83987e-11
-2.9507e-11
8.65186e-11
-3.90248e-11
9.46552e-11
-4.97768e-11
1.02676e-10
-6.18022e-11
1.10426e-10
-7.51251e-11
1.17723e-10
-8.97495e-11
1.24359e-10
-1.05655e-10
1.30097e-10
-1.22791e-10
1.34673e-10
-1.41067e-10
1.37795e-10
-1.60351e-10
1.39143e-10
-1.80456e-10
1.38372e-10
-2.01134e-10
1.35118e-10
-2.22069e-10
1.29006e-10
-2.42866e-10
1.19653e-10
-2.63043e-10
1.06691e-10
-2.82027e-10
8.97817e-11
-2.99153e-10
6.86371e-11
-3.13657e-10
4.3054e-11
-3.24683e-10
1.29695e-11
-3.31391e-10
-2.15707e-11
-3.32772e-10
-6.03606e-11
-3.27928e-10
-1.02766e-10
-3.16023e-10
-1.48001e-10
-2.96374e-10
-1.94942e-10
-2.6854e-10
-2.42152e-10
-2.32414e-10
-2.87909e-10
-1.88293e-10
-3.30275e-10
-1.36946e-10
-3.67216e-10
-7.9612e-11
-3.96748e-10
-1.79773e-11
-4.1712e-10
4.59273e-11
-4.27e-10
1.09876e-10
-4.25651e-10
1.71587e-10
-4.12923e-10
2.28941e-10
-3.89417e-10
2.80104e-10
-3.563e-10
3.23652e-10
-3.15219e-10
3.58629e-10
-2.68139e-10
3.84556e-10
-2.17161e-10
4.01399e-10
-1.64376e-10
4.09516e-10
-1.1171e-10
4.09565e-10
-6.08513e-11
4.02416e-10
-1.31538e-11
3.89161e-10
3.01646e-11
3.70862e-10
6.85018e-11
3.4863e-10
1.01389e-10
3.23523e-10
1.28645e-10
2.9653e-10
1.50316e-10
2.68524e-10
1.66622e-10
2.4027e-10
1.77926e-10
2.12408e-10
1.8468e-10
1.85455e-10
1.87395e-10
1.59816e-10
1.86611e-10
1.35792e-10
1.82867e-10
1.13594e-10
1.76693e-10
9.33291e-11
1.68597e-10
7.50798e-11
1.59033e-10
5.8831e-11
1.48415e-10
4.45581e-11
1.37106e-10
3.21614e-11
1.2542e-10
2.15624e-11
1.13627e-10
1.2629e-11
1.01946e-10
5.24049e-12
9.05644e-11
-7.5262e-13
7.9625e-11
-5.46096e-12
6.92245e-11
-9.02441e-12
5.94503e-11
-1.15667e-11
5.0354e-11
-1.32119e-11
4.19833e-11
-1.40702e-11
3.4339e-11
-1.4248e-11
2.74485e-11
-1.38378e-11
2.12957e-11
-1.2929e-11