/*--------------------------------*- C++ -*----------------------------------*\
| =========                 |                                                 |
| \\      /  F ield         | OpenFOAM: The Open Source CFD Toolbox           |
|  \\    /   O peration     | Version:  2312                                  |
|   \\  /    A nd           | Website:  www.openfoam.com                      |
|    \\/     M anipulation  |                                                 |
\*---------------------------------------------------------------------------*/
FoamFile
{
    version     2.0;
    format      ascii;
    arch        "LSB;label=32;scalar=64";
    class       volVectorField;
    location    "0.45";
    object      U;
}
// * * * * * * * * * * * * * * * * * * * * * * * * * * * * * * * * * * * * * //

dimensions      [0 1 -1 0 0 0 0];

internalField   nonuniform List<vector> 
10000
(
(2.40831e-08 2.3582e-09 0)
(-3.79104e-08 3.8491e-08 0)
(-2.36913e-07 4.82891e-08 0)
(-4.59667e-07 3.22515e-08 0)
(-6.3628e-07 1.16863e-08 0)
(-7.61071e-07 1.54156e-09 0)
(-8.6388e-07 1.36839e-09 0)
(-9.80192e-07 6.97357e-09 0)
(-1.1305e-06 1.75862e-08 0)
(-1.32552e-06 2.90512e-08 0)
(-1.57376e-06 4.10055e-08 0)
(-1.8801e-06 5.34032e-08 0)
(-2.24885e-06 6.62466e-08 0)
(-2.68407e-06 7.96298e-08 0)
(-3.18956e-06 9.35629e-08 0)
(-3.76877e-06 1.08032e-07 0)
(-4.4248e-06 1.23004e-07 0)
(-5.16021e-06 1.38399e-07 0)
(-5.97687e-06 1.54123e-07 0)
(-6.87573e-06 1.69991e-07 0)
(-7.8566e-06 1.85739e-07 0)
(-8.91789e-06 2.0102e-07 0)
(-1.00563e-05 2.15441e-07 0)
(-1.12667e-05 2.28573e-07 0)
(-1.25416e-05 2.3994e-07 0)
(-1.38711e-05 2.48992e-07 0)
(-1.52424e-05 2.55118e-07 0)
(-1.66399e-05 2.57659e-07 0)
(-1.80451e-05 2.55908e-07 0)
(-1.94361e-05 2.49113e-07 0)
(-2.0788e-05 2.36477e-07 0)
(-2.20729e-05 2.17227e-07 0)
(-2.32596e-05 1.90599e-07 0)
(-2.43139e-05 1.55679e-07 0)
(-2.51995e-05 1.11807e-07 0)
(-2.58778e-05 5.85378e-08 0)
(-2.63093e-05 -4.88612e-09 0)
(-2.64558e-05 -7.85344e-08 0)
(-2.62761e-05 -1.59525e-07 0)
(-2.57323e-05 -2.51951e-07 0)
(-2.47936e-05 -3.5374e-07 0)
(-2.34316e-05 -4.63017e-07 0)
(-2.16254e-05 -5.77878e-07 0)
(-1.93637e-05 -6.9582e-07 0)
(-1.66451e-05 -8.13997e-07 0)
(-1.34798e-05 -9.29949e-07 0)
(-9.89175e-06 -1.03986e-06 0)
(-5.91789e-06 -1.13981e-06 0)
(-1.60877e-06 -1.22609e-06 0)
(2.97633e-06 -1.29409e-06 0)
(7.76409e-06 -1.34402e-06 0)
(1.26691e-05 -1.37064e-06 0)
(1.76041e-05 -1.37313e-06 0)
(2.24785e-05 -1.35073e-06 0)
(2.72021e-05 -1.30298e-06 0)
(3.16892e-05 -1.23198e-06 0)
(3.58584e-05 -1.14101e-06 0)
(3.96399e-05 -1.02947e-06 0)
(4.29781e-05 -9.02052e-07 0)
(4.58269e-05 -7.62903e-07 0)
(4.81559e-05 -6.15843e-07 0)
(4.99493e-05 -4.64951e-07 0)
(5.1205e-05 -3.14028e-07 0)
(5.19335e-05 -1.6626e-07 0)
(5.21569e-05 -2.46596e-08 0)
(5.19073e-05 1.0784e-07 0)
(5.12235e-05 2.29639e-07 0)
(5.01499e-05 3.3934e-07 0)
(4.87361e-05 4.35513e-07 0)
(4.70321e-05 5.17904e-07 0)
(4.50897e-05 5.86331e-07 0)
(4.29595e-05 6.41002e-07 0)
(4.0689e-05 6.82877e-07 0)
(3.8323e-05 7.12842e-07 0)
(3.59028e-05 7.31778e-07 0)
(3.34655e-05 7.4109e-07 0)
(3.1043e-05 7.41547e-07 0)
(2.86626e-05 7.35041e-07 0)
(2.63469e-05 7.22178e-07 0)
(2.41142e-05 7.04162e-07 0)
(2.19792e-05 6.82066e-07 0)
(1.99536e-05 6.5806e-07 0)
(1.80429e-05 6.31152e-07 0)
(1.62515e-05 6.03539e-07 0)
(1.45809e-05 5.74786e-07 0)
(1.30291e-05 5.46558e-07 0)
(1.15948e-05 5.18354e-07 0)
(1.02741e-05 4.91901e-07 0)
(9.06312e-06 4.66615e-07 0)
(7.95501e-06 4.41693e-07 0)
(6.94158e-06 4.19295e-07 0)
(6.01526e-06 3.99958e-07 0)
(5.16548e-06 3.82537e-07 0)
(4.38201e-06 3.68589e-07 0)
(3.65442e-06 3.56618e-07 0)
(2.97061e-06 3.47624e-07 0)
(2.31781e-06 3.42192e-07 0)
(1.67904e-06 3.42256e-07 0)
(1.03555e-06 3.49427e-07 0)
(3.41237e-07 3.41397e-07 0)
(4.20463e-08 9.91747e-10 0)
(5.01481e-08 2.30414e-07 0)
(-1.7853e-07 3.96319e-07 0)
(-5.47506e-07 3.86318e-07 0)
(-9.13659e-07 2.96884e-07 0)
(-1.23651e-06 2.31818e-07 0)
(-1.53898e-06 2.24988e-07 0)
(-1.86093e-06 2.67005e-07 0)
(-2.239e-06 3.41657e-07 0)
(-2.69927e-06 4.34736e-07 0)
(-3.2582e-06 5.39822e-07 0)
(-3.92952e-06 6.54059e-07 0)
(-4.72467e-06 7.76203e-07 0)
(-5.65375e-06 9.05722e-07 0)
(-6.72575e-06 1.04212e-06 0)
(-7.94862e-06 1.18486e-06 0)
(-9.32934e-06 1.33318e-06 0)
(-1.08735e-05 1.48597e-06 0)
(-1.2585e-05 1.64173e-06 0)
(-1.44659e-05 1.79844e-06 0)
(-1.65157e-05 1.95355e-06 0)
(-1.8731e-05 2.10399e-06 0)
(-2.11051e-05 2.24624e-06 0)
(-2.36273e-05 2.3764e-06 0)
(-2.62822e-05 2.49008e-06 0)
(-2.905e-05 2.58245e-06 0)
(-3.19052e-05 2.64825e-06 0)
(-3.48169e-05 2.68195e-06 0)
(-3.77482e-05 2.67782e-06 0)
(-4.06562e-05 2.63001e-06 0)
(-4.3492e-05 2.53265e-06 0)
(-4.62009e-05 2.38007e-06 0)
(-4.87226e-05 2.16692e-06 0)
(-5.09915e-05 1.88829e-06 0)
(-5.29382e-05 1.54038e-06 0)
(-5.44897e-05 1.12072e-06 0)
(-5.55719e-05 6.27887e-07 0)
(-5.61101e-05 6.27186e-08 0)
(-5.60357e-05 -5.69703e-07 0)
(-5.52812e-05 -1.26679e-06 0)
(-5.37855e-05 -2.01964e-06 0)
(-5.15025e-05 -2.81573e-06 0)
(-4.83986e-05 -3.64016e-06 0)
(-4.4458e-05 -4.4748e-06 0)
(-3.96835e-05 -5.29883e-06 0)
(-3.40998e-05 -6.09103e-06 0)
(-2.77559e-05 -6.82702e-06 0)
(-2.07244e-05 -7.4823e-06 0)
(-1.3101e-05 -8.03365e-06 0)
(-5.0029e-06 -8.4592e-06 0)
(3.43616e-06 -8.74443e-06 0)
(1.20648e-05 -8.8748e-06 0)
(2.07214e-05 -8.84218e-06 0)
(2.92456e-05 -8.64503e-06 0)
(3.74762e-05 -8.28724e-06 0)
(4.52614e-05 -7.78004e-06 0)
(5.24634e-05 -7.14036e-06 0)
(5.89622e-05 -6.38447e-06 0)
(6.46615e-05 -5.53735e-06 0)
(6.94878e-05 -4.62419e-06 0)
(7.33932e-05 -3.67083e-06 0)
(7.63558e-05 -2.70295e-06 0)
(7.83784e-05 -1.74474e-06 0)
(7.94855e-05 -8.17541e-07 0)
(7.97207e-05 6.03004e-08 0)
(7.9146e-05 8.72253e-07 0)
(7.78344e-05 1.60695e-06 0)
(7.58673e-05 2.25635e-06 0)
(7.33341e-05 2.81466e-06 0)
(7.03259e-05 3.28016e-06 0)
(6.69343e-05 3.65381e-06 0)
(6.32496e-05 3.93826e-06 0)
(5.93559e-05 4.13876e-06 0)
(5.53312e-05 4.26211e-06 0)
(5.12473e-05 4.31529e-06 0)
(4.71686e-05 4.30701e-06 0)
(4.31502e-05 4.24475e-06 0)
(3.92386e-05 4.13802e-06 0)
(3.54715e-05 3.99418e-06 0)
(3.188e-05 3.8213e-06 0)
(2.84893e-05 3.62566e-06 0)
(2.5316e-05 3.41695e-06 0)
(2.23687e-05 3.19705e-06 0)
(1.96534e-05 2.97426e-06 0)
(1.71711e-05 2.74958e-06 0)
(1.49173e-05 2.52985e-06 0)
(1.28873e-05 2.31559e-06 0)
(1.10734e-05 2.11024e-06 0)
(9.46358e-06 1.91555e-06 0)
(8.04588e-06 1.73254e-06 0)
(6.80668e-06 1.56484e-06 0)
(5.72846e-06 1.41463e-06 0)
(4.79365e-06 1.28238e-06 0)
(3.98318e-06 1.1702e-06 0)
(3.2777e-06 1.0781e-06 0)
(2.65709e-06 1.00832e-06 0)
(2.09619e-06 9.66346e-07 0)
(1.56132e-06 9.6645e-07 0)
(1.01312e-06 1.0298e-06 0)
(3.46596e-07 1.03409e-06 0)
(4.27768e-08 -8.81155e-08 0)
(1.7808e-07 2.49894e-07 0)
(1.49982e-07 6.31917e-07 0)
(-8.14615e-08 7.52648e-07 0)
(-4.12298e-07 6.9051e-07 0)
(-7.80422e-07 6.15939e-07 0)
(-1.16901e-06 6.16427e-07 0)
(-1.59428e-06 6.99204e-07 0)
(-2.08271e-06 8.4335e-07 0)
(-2.65966e-06 1.03106e-06 0)
(-3.3462e-06 1.25026e-06 0)
(-4.1605e-06 1.49432e-06 0)
(-5.11828e-06 1.75963e-06 0)
(-6.23346e-06 2.04397e-06 0)
(-7.51822e-06 2.34554e-06 0)
(-8.98313e-06 2.66241e-06 0)
(-1.06374e-05 2.99237e-06 0)
(-1.24881e-05 3.33257e-06 0)
(-1.45404e-05 3.67927e-06 0)
(-1.67968e-05 4.02772e-06 0)
(-1.92569e-05 4.37226e-06 0)
(-2.19167e-05 4.70618e-06 0)
(-2.47682e-05 5.02193e-06 0)
(-2.77988e-05 5.31097e-06 0)
(-3.09908e-05 5.56378e-06 0)
(-3.43208e-05 5.76982e-06 0)
(-3.77594e-05 5.91775e-06 0)
(-4.12704e-05 5.99562e-06 0)
(-4.48106e-05 5.99113e-06 0)
(-4.83298e-05 5.89169e-06 0)
(-5.17706e-05 5.68472e-06 0)
(-5.50689e-05 5.35805e-06 0)
(-5.81532e-05 4.90039e-06 0)
(-6.09463e-05 4.30184e-06 0)
(-6.33657e-05 3.55471e-06 0)
(-6.53249e-05 2.65388e-06 0)
(-6.67359e-05 1.59743e-06 0)
(-6.75108e-05 3.87662e-07 0)
(-6.75656e-05 -9.68738e-07 0)
(-6.68201e-05 -2.45726e-06 0)
(-6.52025e-05 -4.0597e-06 0)
(-6.2656e-05 -5.75002e-06 0)
(-5.91399e-05 -7.49616e-06 0)
(-5.46345e-05 -9.25963e-06 0)
(-4.91432e-05 -1.09961e-05 0)
(-4.26947e-05 -1.26585e-05 0)
(-3.53462e-05 -1.41969e-05 0)
(-2.71843e-05 -1.55602e-05 0)
(-1.83236e-05 -1.67003e-05 0)
(-8.90361e-06 -1.75742e-05 0)
(9.14492e-07 -1.81462e-05 0)
(1.09516e-05 -1.83927e-05 0)
(2.10167e-05 -1.82962e-05 0)
(3.0917e-05 -1.78553e-05 0)
(4.04616e-05 -1.70814e-05 0)
(4.94709e-05 -1.59977e-05 0)
(5.77839e-05 -1.46385e-05 0)
(6.52605e-05 -1.30455e-05 0)
(7.17889e-05 -1.12686e-05 0)
(7.72862e-05 -9.36098e-06 0)
(8.17001e-05 -7.37711e-06 0)
(8.50088e-05 -5.36995e-06 0)
(8.72199e-05 -3.38946e-06 0)
(8.83672e-05 -1.48054e-06 0)
(8.85056e-05 3.18983e-07 0)
(8.77109e-05 1.97748e-06 0)
(8.60731e-05 3.47047e-06 0)
(8.369e-05 4.78175e-06 0)
(8.06678e-05 5.90158e-06 0)
(7.71151e-05 6.82684e-06 0)
(7.31391e-05 7.56075e-06 0)
(6.88447e-05 8.11001e-06 0)
(6.43303e-05 8.48505e-06 0)
(5.9686e-05 8.70038e-06 0)
(5.49944e-05 8.77165e-06 0)
(5.03285e-05 8.71648e-06 0)
(4.57513e-05 8.55204e-06 0)
(4.13155e-05 8.29631e-06 0)
(3.70636e-05 7.96589e-06 0)
(3.30293e-05 7.57761e-06 0)
(2.92418e-05 7.14595e-06 0)
(2.57178e-05 6.68588e-06 0)
(2.24663e-05 6.20755e-06 0)
(1.9493e-05 5.72216e-06 0)
(1.67985e-05 5.23914e-06 0)
(1.43776e-05 4.76485e-06 0)
(1.22206e-05 4.3061e-06 0)
(1.03184e-05 3.86694e-06 0)
(8.65552e-06 3.45156e-06 0)
(7.21575e-06 3.06489e-06 0)
(5.98192e-06 2.70986e-06 0)
(4.93396e-06 2.39017e-06 0)
(4.05156e-06 2.10897e-06 0)
(3.31413e-06 1.86806e-06 0)
(2.70005e-06 1.66988e-06 0)
(2.18544e-06 1.51869e-06 0)
(1.74275e-06 1.42744e-06 0)
(1.33272e-06 1.42569e-06 0)
(9.05257e-07 1.56263e-06 0)
(3.34294e-07 1.66007e-06 0)
(2.68327e-08 -2.05645e-07 0)
(1.72061e-07 1.21528e-07 0)
(2.83032e-07 6.56721e-07 0)
(2.31907e-07 9.49943e-07 0)
(3.92487e-08 1.00027e-06 0)
(-2.56149e-07 9.89306e-07 0)
(-6.22155e-07 1.039e-06 0)
(-1.05369e-06 1.18108e-06 0)
(-1.56211e-06 1.4051e-06 0)
(-2.16561e-06 1.6941e-06 0)
(-2.88346e-06 2.03462e-06 0)
(-3.7342e-06 2.41804e-06 0)
(-4.73498e-06 2.83877e-06 0)
(-5.9014e-06 3.2928e-06 0)
(-7.24737e-06 3.77671e-06 0)
(-8.78507e-06 4.28682e-06 0)
(-1.0525e-05 4.81898e-06 0)
(-1.24758e-05 5.36818e-06 0)
(-1.46435e-05 5.92805e-06 0)
(-1.70316e-05 6.49085e-06 0)
(-1.96402e-05 7.04753e-06 0)
(-2.24659e-05 7.58758e-06 0)
(-2.55009e-05 8.09907e-06 0)
(-2.87329e-05 8.56849e-06 0)
(-3.21444e-05 8.98068e-06 0)
(-3.57119e-05 9.31899e-06 0)
(-3.94055e-05 9.56551e-06 0)
(-4.3188e-05 9.70134e-06 0)
(-4.70151e-05 9.70679e-06 0)
(-5.08346e-05 9.5617e-06 0)
(-5.45869e-05 9.24588e-06 0)
(-5.82041e-05 8.73978e-06 0)
(-6.16108e-05 8.02529e-06 0)
(-6.47242e-05 7.08656e-06 0)
(-6.74557e-05 5.91099e-06 0)
(-6.97119e-05 4.48998e-06 0)
(-7.13966e-05 2.82019e-06 0)
(-7.24127e-05 9.05236e-07 0)
(-7.26666e-05 -1.24335e-06 0)
(-7.20674e-05 -3.60435e-06 0)
(-7.05331e-05 -6.14801e-06 0)
(-6.79976e-05 -8.83287e-06 0)
(-6.44117e-05 -1.16076e-05 0)
(-5.97478e-05 -1.44109e-05 0)
(-5.40045e-05 -1.71724e-05 0)
(-4.72091e-05 -1.98154e-05 0)
(-3.94196e-05 -2.22601e-05 0)
(-3.07278e-05 -2.44254e-05 0)
(-2.12578e-05 -2.62342e-05 0)
(-1.11625e-05 -2.76172e-05 0)
(-6.20967e-07 -2.85177e-05 0)
(1.01697e-05 -2.88976e-05 0)
(2.09974e-05 -2.87299e-05 0)
(3.16454e-05 -2.80141e-05 0)
(4.1901e-05 -2.67697e-05 0)
(5.15653e-05 -2.50345e-05 0)
(6.04602e-05 -2.28644e-05 0)
(6.84319e-05 -2.03284e-05 0)
(7.53586e-05 -1.75063e-05 0)
(8.11525e-05 -1.44839e-05 0)
(8.57606e-05 -1.13485e-05 0)
(8.91637e-05 -8.18436e-06 0)
(9.13752e-05 -5.07037e-06 0)
(9.24378e-05 -2.07758e-06 0)
(9.24178e-05 7.33849e-07 0)
(9.14018e-05 3.31642e-06 0)
(8.9492e-05 5.63255e-06 0)
(8.67991e-05 7.65743e-06 0)
(8.34415e-05 9.37772e-06 0)
(7.95387e-05 1.07897e-05 0)
(7.52076e-05 1.1899e-05 0)
(7.05607e-05 1.2718e-05 0)
(6.57041e-05 1.32641e-05 0)
(6.0734e-05 1.35601e-05 0)
(5.57374e-05 1.36322e-05 0)
(5.07908e-05 1.35078e-05 0)
(4.59592e-05 1.32149e-05 0)
(4.12966e-05 1.27811e-05 0)
(3.68465e-05 1.22331e-05 0)
(3.26434e-05 1.15965e-05 0)
(2.87151e-05 1.08965e-05 0)
(2.50775e-05 1.01511e-05 0)
(2.17376e-05 9.38203e-06 0)
(1.8702e-05 8.60296e-06 0)
(1.59681e-05 7.83059e-06 0)
(1.35279e-05 7.07405e-06 0)
(1.1372e-05 6.34353e-06 0)
(9.48625e-06 5.64705e-06 0)
(7.85395e-06 4.99153e-06 0)
(6.45628e-06 4.38264e-06 0)
(5.27371e-06 3.82544e-06 0)
(4.28573e-06 3.32423e-06 0)
(3.47073e-06 2.8832e-06 0)
(2.80685e-06 2.50378e-06 0)
(2.27214e-06 2.19042e-06 0)
(1.84268e-06 1.9501e-06 0)
(1.48942e-06 1.80425e-06 0)
(1.17093e-06 1.80026e-06 0)
(8.30744e-07 2.02121e-06 0)
(3.25775e-07 2.25004e-06 0)
(7.48895e-09 -2.76243e-07 0)
(8.61577e-08 -1.20078e-08 0)
(2.2904e-07 5.72556e-07 0)
(2.95896e-07 9.95389e-07 0)
(2.42176e-07 1.18018e-06 0)
(6.4777e-08 1.27609e-06 0)
(-2.14532e-07 1.412e-06 0)
(-5.85218e-07 1.63708e-06 0)
(-1.05007e-06 1.95393e-06 0)
(-1.62065e-06 2.35136e-06 0)
(-2.3126e-06 2.81804e-06 0)
(-3.14278e-06 3.34517e-06 0)
(-4.12796e-06 3.92613e-06 0)
(-5.28401e-06 4.55571e-06 0)
(-6.62568e-06 5.22901e-06 0)
(-8.16624e-06 5.94067e-06 0)
(-9.91739e-06 6.68453e-06 0)
(-1.1889e-05 7.45325e-06 0)
(-1.40888e-05 8.23782e-06 0)
(-1.65214e-05 9.02757e-06 0)
(-1.91883e-05 9.81014e-06 0)
(-2.20874e-05 1.05712e-05 0)
(-2.52123e-05 1.12943e-05 0)
(-2.85523e-05 1.19608e-05 0)
(-3.20913e-05 1.255e-05 0)
(-3.58073e-05 1.30388e-05 0)
(-3.96711e-05 1.34028e-05 0)
(-4.36466e-05 1.36155e-05 0)
(-4.76898e-05 1.36495e-05 0)
(-5.17485e-05 1.34765e-05 0)
(-5.57622e-05 1.30681e-05 0)
(-5.96614e-05 1.23965e-05 0)
(-6.33678e-05 1.1436e-05 0)
(-6.67949e-05 1.01634e-05 0)
(-6.98489e-05 8.56002e-06 0)
(-7.24302e-05 6.61267e-06 0)
(-7.44342e-05 4.31555e-06 0)
(-7.57544e-05 1.67246e-06 0)
(-7.62855e-05 -1.30139e-06 0)
(-7.59256e-05 -4.57831e-06 0)
(-7.45801e-05 -8.11787e-06 0)
(-7.2169e-05 -1.18629e-05 0)
(-6.8631e-05 -1.57416e-05 0)
(-6.39274e-05 -1.9668e-05 0)
(-5.80477e-05 -2.35434e-05 0)
(-5.10135e-05 -2.7259e-05 0)
(-4.28813e-05 -3.07006e-05 0)
(-3.37453e-05 -3.37526e-05 0)
(-2.37376e-05 -3.63047e-05 0)
(-1.30249e-05 -3.82574e-05 0)
(-1.80641e-06 -3.95287e-05 0)
(9.70157e-06 -4.00659e-05 0)
(2.12629e-05 -3.98271e-05 0)
(3.26306e-05 -3.88145e-05 0)
(4.35683e-05 -3.70566e-05 0)
(5.3854e-05 -3.4608e-05 0)
(6.32893e-05 -3.15497e-05 0)
(7.17055e-05 -2.7982e-05 0)
(7.89703e-05 -2.40193e-05 0)
(8.4991e-05 -1.97841e-05 0)
(8.97152e-05 -1.54008e-05 0)
(9.31292e-05 -1.09892e-05 0)
(9.52547e-05 -6.65991e-06 0)
(9.61456e-05 -2.51182e-06 0)
(9.58828e-05 1.37108e-06 0)
(9.4568e-05 4.92362e-06 0)
(9.23172e-05 8.09644e-06 0)
(8.92564e-05 1.0857e-05 0)
(8.55171e-05 1.31887e-05 0)
(8.12306e-05 1.50885e-05 0)
(7.65242e-05 1.65657e-05 0)
(7.1518e-05 1.76394e-05 0)
(6.63249e-05 1.83365e-05 0)
(6.10467e-05 1.86896e-05 0)
(5.57736e-05 1.87361e-05 0)
(5.05833e-05 1.85144e-05 0)
(4.55417e-05 1.80639e-05 0)
(4.07025e-05 1.74229e-05 0)
(3.61083e-05 1.66292e-05 0)
(3.17935e-05 1.57178e-05 0)
(2.77811e-05 1.4723e-05 0)
(2.40856e-05 1.36698e-05 0)
(2.07132e-05 1.25868e-05 0)
(1.76653e-05 1.14959e-05 0)
(1.49387e-05 1.04152e-05 0)
(1.25217e-05 9.36173e-06 0)
(1.04023e-05 8.34623e-06 0)
(8.5658e-06 7.38282e-06 0)
(6.9915e-06 6.47837e-06 0)
(5.65872e-06 5.6408e-06 0)
(4.54691e-06 4.87649e-06 0)
(3.63419e-06 4.18975e-06 0)
(2.89714e-06 3.58494e-06 0)
(2.31454e-06 3.06448e-06 0)
(1.86449e-06 2.63268e-06 0)
(1.52072e-06 2.30022e-06 0)
(1.25456e-06 2.09732e-06 0)
(1.02299e-06 2.09313e-06 0)
(7.63797e-07 2.40978e-06 0)
(3.18208e-07 2.80366e-06 0)
(-3.20469e-09 -2.95663e-07 0)
(2.11619e-08 -1.04564e-07 0)
(1.56957e-07 4.48907e-07 0)
(2.89422e-07 9.35375e-07 0)
(3.439e-07 1.23366e-06 0)
(2.84319e-07 1.4463e-06 0)
(1.13415e-07 1.68875e-06 0)
(-1.63683e-07 2.0157e-06 0)
(-5.48512e-07 2.43944e-06 0)
(-1.04958e-06 2.95528e-06 0)
(-1.67997e-06 3.55535e-06 0)
(-2.45509e-06 4.23206e-06 0)
(-3.39086e-06 4.9787e-06 0)
(-4.503e-06 5.78949e-06 0)
(-5.80686e-06 6.65844e-06 0)
(-7.31675e-06 7.57884e-06 0)
(-9.04567e-06 8.54276e-06 0)
(-1.10051e-05 9.54069e-06 0)
(-1.32046e-05 1.05612e-05 0)
(-1.56504e-05 1.1591e-05 0)
(-1.83461e-05 1.26144e-05 0)
(-2.12916e-05 1.36132e-05 0)
(-2.44831e-05 1.45667e-05 0)
(-2.79121e-05 1.5451e-05 0)
(-3.15649e-05 1.62396e-05 0)
(-3.54214e-05 1.69033e-05 0)
(-3.94547e-05 1.74104e-05 0)
(-4.36301e-05 1.77268e-05 0)
(-4.79048e-05 1.78167e-05 0)
(-5.22274e-05 1.76431e-05 0)
(-5.65367e-05 1.71685e-05 0)
(-6.0762e-05 1.63562e-05 0)
(-6.48224e-05 1.51712e-05 0)
(-6.86274e-05 1.35817e-05 0)
(-7.20775e-05 1.15613e-05 0)
(-7.50652e-05 9.09068e-06 0)
(-7.74763e-05 6.16008e-06 0)
(-7.91921e-05 2.77157e-06 0)
(-8.00937e-05 -1.0579e-06 0)
(-8.00642e-05 -5.2951e-06 0)
(-7.89915e-05 -9.88954e-06 0)
(-7.67777e-05 -1.47685e-05 0)
(-7.33446e-05 -1.98391e-05 0)
(-6.86377e-05 -2.49889e-05 0)
(-6.2633e-05 -3.00877e-05 0)
(-5.53431e-05 -3.49908e-05 0)
(-4.68198e-05 -3.95444e-05 0)
(-3.71599e-05 -4.35927e-05 0)
(-2.65052e-05 -4.69858e-05 0)
(-1.50388e-05 -4.95892e-05 0)
(-2.9877e-06 -5.12909e-05 0)
(9.40873e-06 -5.20136e-05 0)
(2.18818e-05 -5.17077e-05 0)
(3.41426e-05 -5.03718e-05 0)
(4.59243e-05 -4.80453e-05 0)
(5.6974e-05 -4.48037e-05 0)
(6.70666e-05 -4.07576e-05 0)
(7.60136e-05 -3.60443e-05 0)
(8.36704e-05 -3.08191e-05 0)
(8.99384e-05 -2.52475e-05 0)
(9.4767e-05 -1.94962e-05 0)
(9.81507e-05 -1.37253e-05 0)
(0.000100124 -8.08176e-06 0)
(0.000100757 -2.69423e-06 0)
(0.000100149 2.32846e-06 0)
(9.84227e-05 6.90266e-06 0)
(9.5714e-05 1.0967e-05 0)
(9.21671e-05 1.44823e-05 0)
(8.79306e-05 1.74301e-05 0)
(8.31509e-05 1.98099e-05 0)
(7.79678e-05 2.16374e-05 0)
(7.25119e-05 2.29404e-05 0)
(6.69036e-05 2.37571e-05 0)
(6.12504e-05 2.41319e-05 0)
(5.56458e-05 2.41146e-05 0)
(5.01687e-05 2.37566e-05 0)
(4.48846e-05 2.31098e-05 0)
(3.98467e-05 2.22245e-05 0)
(3.50959e-05 2.11495e-05 0)
(3.06638e-05 1.99313e-05 0)
(2.6569e-05 1.86102e-05 0)
(2.28221e-05 1.7224e-05 0)
(1.94275e-05 1.58037e-05 0)
(1.63817e-05 1.43783e-05 0)
(1.36776e-05 1.29733e-05 0)
(1.13002e-05 1.16073e-05 0)
(9.23606e-06 1.0297e-05 0)
(7.4664e-06 9.05653e-06 0)
(5.96711e-06 7.89568e-06 0)
(4.71769e-06 6.8233e-06 0)
(3.69431e-06 5.8461e-06 0)
(2.87418e-06 4.96989e-06 0)
(2.23363e-06 4.1988e-06 0)
(1.74893e-06 3.53592e-06 0)
(1.3975e-06 2.98466e-06 0)
(1.15388e-06 2.5592e-06 0)
(9.88568e-07 2.29955e-06 0)
(8.56021e-07 2.29848e-06 0)
(6.87106e-07 2.7248e-06 0)
(3.08446e-07 3.32158e-06 0)
(-3.49326e-09 -2.94278e-07 0)
(1.38705e-08 -1.7641e-07 0)
(1.57489e-07 3.04785e-07 0)
(3.40434e-07 8.04911e-07 0)
(4.81633e-07 1.18553e-06 0)
(5.28578e-07 1.50585e-06 0)
(4.68e-07 1.85907e-06 0)
(2.96693e-07 2.29753e-06 0)
(1.04692e-08 2.83772e-06 0)
(-3.99483e-07 3.48041e-06 0)
(-9.45531e-07 4.22095e-06 0)
(-1.64268e-06 5.05343e-06 0)
(-2.50651e-06 5.97174e-06 0)
(-3.55278e-06 6.97018e-06 0)
(-4.79765e-06 8.04185e-06 0)
(-6.25665e-06 9.17917e-06 0)
(-7.94445e-06 1.03727e-05 0)
(-9.87449e-06 1.16113e-05 0)
(-1.20582e-05 1.28814e-05 0)
(-1.45043e-05 1.41671e-05 0)
(-1.72189e-05 1.54499e-05 0)
(-2.02051e-05 1.67076e-05 0)
(-2.34618e-05 1.79151e-05 0)
(-2.69838e-05 1.90436e-05 0)
(-3.07604e-05 2.00606e-05 0)
(-3.47745e-05 2.09306e-05 0)
(-3.90019e-05 2.16142e-05 0)
(-4.34103e-05 2.20694e-05 0)
(-4.79587e-05 2.22516e-05 0)
(-5.25967e-05 2.21142e-05 0)
(-5.72633e-05 2.16097e-05 0)
(-6.18865e-05 2.06907e-05 0)
(-6.63828e-05 1.93117e-05 0)
(-7.06572e-05 1.74305e-05 0)
(-7.46032e-05 1.50109e-05 0)
(-7.81042e-05 1.20255e-05 0)
(-8.10342e-05 8.45776e-06 0)
(-8.32596e-05 4.30587e-06 0)
(-8.46438e-05 -4.14313e-07 0)
(-8.5051e-05 -5.66338e-06 0)
(-8.43472e-05 -1.13851e-05 0)
(-8.24096e-05 -1.74906e-05 0)
(-7.91375e-05 -2.38652e-05 0)
(-7.44547e-05 -3.03679e-05 0)
(-6.83184e-05 -3.68331e-05 0)
(-6.07269e-05 -4.30747e-05 0)
(-5.17256e-05 -4.88927e-05 0)
(-4.14128e-05 -5.40841e-05 0)
(-2.99423e-05 -5.84505e-05 0)
(-1.75191e-05 -6.18131e-05 0)
(-4.39999e-06 -6.40221e-05 0)
(9.13599e-06 -6.49779e-05 0)
(2.27763e-05 -6.4607e-05 0)
(3.61847e-05 -6.29108e-05 0)
(4.90477e-05 -5.99411e-05 0)
(6.10715e-05 -5.57987e-05 0)
(7.1996e-05 -5.06305e-05 0)
(8.1607e-05 -4.46187e-05 0)
(8.97442e-05 -3.79685e-05 0)
(9.63035e-05 -3.08968e-05 0)
(0.000101238 -2.36199e-05 0)
(0.000104553 -1.63443e-05 0)
(0.000106301 -9.25802e-06 0)
(0.000106577 -2.52311e-06 0)
(0.000105504 3.72422e-06 0)
(0.000103232 9.38267e-06 0)
(9.99229e-05 1.43787e-05 0)
(9.57447e-05 1.86683e-05 0)
(9.0868e-05 2.22336e-05 0)
(8.54585e-05 2.50794e-05 0)
(7.96716e-05 2.72304e-05 0)
(7.36503e-05 2.87266e-05 0)
(6.75239e-05 2.96192e-05 0)
(6.14063e-05 2.99673e-05 0)
(5.53945e-05 2.98353e-05 0)
(4.95685e-05 2.92896e-05 0)
(4.39933e-05 2.83957e-05 0)
(3.87195e-05 2.72178e-05 0)
(3.37862e-05 2.5817e-05 0)
(2.92198e-05 2.42499e-05 0)
(2.50345e-05 2.25667e-05 0)
(2.12358e-05 2.08125e-05 0)
(1.78213e-05 1.90268e-05 0)
(1.4787e-05 1.72443e-05 0)
(1.21195e-05 1.5494e-05 0)
(9.79817e-06 1.37989e-05 0)
(7.80646e-06 1.21787e-05 0)
(6.12222e-06 1.06498e-05 0)
(4.71913e-06 9.2238e-06 0)
(3.57302e-06 7.91001e-06 0)
(2.66004e-06 6.71636e-06 0)
(1.95565e-06 5.6463e-06 0)
(1.43324e-06 4.70708e-06 0)
(1.06786e-06 3.89847e-06 0)
(8.36415e-07 3.22679e-06 0)
(7.12597e-07 2.70817e-06 0)
(6.67247e-07 2.39316e-06 0)
(6.53323e-07 2.40041e-06 0)
(5.9523e-07 2.95169e-06 0)
(2.98085e-07 3.79456e-06 0)
(2.90906e-09 -3.05228e-07 0)
(5.65509e-08 -2.69172e-07 0)
(2.40557e-07 1.23253e-07 0)
(4.83742e-07 6.08825e-07 0)
(7.08403e-07 1.04619e-06 0)
(8.57151e-07 1.45999e-06 0)
(9.0741e-07 1.92007e-06 0)
(8.48384e-07 2.47229e-06 0)
(6.72066e-07 3.13437e-06 0)
(3.68339e-07 3.90981e-06 0)
(-7.64501e-08 4.79635e-06 0)
(-6.77817e-07 5.78993e-06 0)
(-1.45136e-06 6.88623e-06 0)
(-2.41373e-06 8.07926e-06 0)
(-3.58234e-06 9.36162e-06 0)
(-4.97405e-06 1.07253e-05 0)
(-6.60563e-06 1.21597e-05 0)
(-8.49267e-06 1.36525e-05 0)
(-1.06491e-05 1.51884e-05 0)
(-1.30866e-05 1.67492e-05 0)
(-1.58147e-05 1.83134e-05 0)
(-1.88399e-05 1.98554e-05 0)
(-2.2165e-05 2.13457e-05 0)
(-2.57886e-05 2.27506e-05 0)
(-2.9704e-05 2.40317e-05 0)
(-3.38979e-05 2.51466e-05 0)
(-3.83496e-05 2.60485e-05 0)
(-4.30299e-05 2.66867e-05 0)
(-4.79006e-05 2.70072e-05 0)
(-5.29129e-05 2.6953e-05 0)
(-5.80068e-05 2.6465e-05 0)
(-6.31094e-05 2.5484e-05 0)
(-6.81347e-05 2.39518e-05 0)
(-7.29827e-05 2.18139e-05 0)
(-7.75392e-05 1.90218e-05 0)
(-8.16771e-05 1.55366e-05 0)
(-8.52563e-05 1.13323e-05 0)
(-8.81258e-05 6.3998e-06 0)
(-9.01256e-05 7.51393e-07 0)
(-9.10982e-05 -5.5734e-06 0)
(-9.0882e-05 -1.25091e-05 0)
(-8.93207e-05 -1.99544e-05 0)
(-8.62839e-05 -2.77728e-05 0)
(-8.16663e-05 -3.57921e-05 0)
(-7.53987e-05 -4.38064e-05 0)
(-6.74595e-05 -5.15817e-05 0)
(-5.78835e-05 -5.88638e-05 0)
(-4.67688e-05 -6.53914e-05 0)
(-3.42818e-05 -7.09066e-05 0)
(-2.06543e-05 -7.51744e-05 0)
(-6.19278e-06 -7.7998e-05 0)
(8.78744e-06 -7.9238e-05 0)
(2.39163e-05 -7.88102e-05 0)
(3.87799e-05 -7.67057e-05 0)
(5.30116e-05 -7.29935e-05 0)
(6.62634e-05 -6.78076e-05 0)
(7.82288e-05 -6.13401e-05 0)
(8.8661e-05 -5.38292e-05 0)
(9.73805e-05 -4.55413e-05 0)
(0.000104278 -3.67562e-05 0)
(0.000109313 -2.77505e-05 0)
(0.000112508 -1.87849e-05 0)
(0.000113942 -1.00949e-05 0)
(0.000113737 -1.88127e-06 0)
(0.000112053 5.69652e-06 0)
(0.000109077 1.25135e-05 0)
(0.000105 1.84865e-05 0)
(0.000100022 2.35695e-05 0)
(9.4342e-05 2.77488e-05 0)
(8.81479e-05 3.10382e-05 0)
(8.16149e-05 3.34745e-05 0)
(7.49002e-05 3.51134e-05 0)
(6.81432e-05 3.60238e-05 0)
(6.14647e-05 3.62823e-05 0)
(5.49653e-05 3.59705e-05 0)
(4.87252e-05 3.51717e-05 0)
(4.28077e-05 3.39675e-05 0)
(3.72616e-05 3.24363e-05 0)
(3.21203e-05 3.06551e-05 0)
(2.74047e-05 2.86868e-05 0)
(2.31219e-05 2.65965e-05 0)
(1.92718e-05 2.44349e-05 0)
(1.58482e-05 2.22496e-05 0)
(1.28377e-05 2.00812e-05 0)
(1.02213e-05 1.79602e-05 0)
(7.97446e-06 1.59167e-05 0)
(6.07728e-06 1.39713e-05 0)
(4.50275e-06 1.21413e-05 0)
(3.21945e-06 1.04402e-05 0)
(2.20313e-06 8.87744e-06 0)
(1.42405e-06 7.4621e-06 0)
(8.58604e-07 6.19735e-06 0)
(4.78674e-07 5.0858e-06 0)
(2.55599e-07 4.13029e-06 0)
(1.67394e-07 3.33656e-06 0)
(1.86298e-07 2.72456e-06 0)
(2.8363e-07 2.35575e-06 0)
(4.08947e-07 2.37685e-06 0)
(4.81969e-07 3.07328e-06 0)
(2.84766e-07 4.21078e-06 0)
(1.27935e-08 -3.501e-07 0)
(1.3118e-07 -4.18442e-07 0)
(3.86448e-07 -1.22171e-07 0)
(7.10089e-07 3.35608e-07 0)
(1.02805e-06 8.13263e-07 0)
(1.28389e-06 1.30721e-06 0)
(1.45003e-06 1.86754e-06 0)
(1.51149e-06 2.53189e-06 0)
(1.45637e-06 3.31742e-06 0)
(1.27182e-06 4.2287e-06 0)
(9.43212e-07 5.26538e-06 0)
(4.54882e-07 6.42527e-06 0)
(-2.10406e-07 7.70488e-06 0)
(-1.0715e-06 9.09925e-06 0)
(-2.14666e-06 1.06008e-05 0)
(-3.45447e-06 1.22013e-05 0)
(-5.0141e-06 1.38895e-05 0)
(-6.84371e-06 1.5652e-05 0)
(-8.96031e-06 1.74723e-05 0)
(-1.13792e-05 1.93303e-05 0)
(-1.41138e-05 2.12015e-05 0)
(-1.71748e-05 2.30574e-05 0)
(-2.05697e-05 2.48644e-05 0)
(-2.43018e-05 2.65836e-05 0)
(-2.83693e-05 2.8171e-05 0)
(-3.27635e-05 2.95772e-05 0)
(-3.74683e-05 3.07478e-05 0)
(-4.24587e-05 3.1623e-05 0)
(-4.77003e-05 3.21384e-05 0)
(-5.31472e-05 3.22254e-05 0)
(-5.87411e-05 3.18125e-05 0)
(-6.4409e-05 3.08263e-05 0)
(-7.00627e-05 2.91941e-05 0)
(-7.55974e-05 2.68464e-05 0)
(-8.0891e-05 2.37192e-05 0)
(-8.58046e-05 1.97586e-05 0)
(-9.0182e-05 1.4925e-05 0)
(-9.38515e-05 9.19799e-06 0)
(-9.66281e-05 2.58203e-06 0)
(-9.83227e-05 -4.88823e-06 0)
(-9.87393e-05 -1.31388e-05 0)
(-9.76842e-05 -2.20598e-05 0)
(-9.49857e-05 -3.14922e-05 0)
(-9.04985e-05 -4.12305e-05 0)
(-8.4118e-05 -5.10238e-05 0)
(-7.57941e-05 -6.05819e-05 0)
(-6.55448e-05 -6.95849e-05 0)
(-5.34647e-05 -7.76991e-05 0)
(-3.97337e-05 -8.45923e-05 0)
(-2.46182e-05 -8.99582e-05 0)
(-8.4709e-06 -9.35387e-05 0)
(8.31709e-06 -9.5135e-05 0)
(2.53026e-05 -9.46561e-05 0)
(4.19959e-05 -9.20813e-05 0)
(5.79409e-05 -8.74976e-05 0)
(7.27206e-05 -8.10813e-05 0)
(8.59707e-05 -7.30836e-05 0)
(9.74027e-05 -6.38133e-05 0)
(0.000106815 -5.36141e-05 0)
(0.000114092 -4.28432e-05 0)
(0.000119207 -3.18512e-05 0)
(0.000122207 -2.09638e-05 0)
(0.000123204 -1.04705e-05 0)
(0.000122367 -6.16087e-07 0)
(0.000119898 8.41371e-06 0)
(0.000116021 1.64732e-05 0)
(0.000110978 2.34715e-05 0)
(0.000105007 2.93639e-05 0)
(9.83364e-05 3.41449e-05 0)
(9.11839e-05 3.78424e-05 0)
(8.37465e-05 4.05109e-05 0)
(7.61994e-05 4.22263e-05 0)
(6.86926e-05 4.30789e-05 0)
(6.13527e-05 4.31669e-05 0)
(5.42834e-05 4.25932e-05 0)
(4.7565e-05 4.14599e-05 0)
(4.12571e-05 3.98671e-05 0)
(3.54059e-05 3.79103e-05 0)
(3.00353e-05 3.56798e-05 0)
(2.51595e-05 3.32522e-05 0)
(2.07808e-05 3.06996e-05 0)
(1.6887e-05 2.80843e-05 0)
(1.34656e-05 2.54598e-05 0)
(1.04957e-05 2.28702e-05 0)
(7.95328e-06 2.03525e-05 0)
(5.80762e-06 1.79373e-05 0)
(4.02954e-06 1.56504e-05 0)
(2.58983e-06 1.35051e-05 0)
(1.45423e-06 1.15194e-05 0)
(5.9404e-07 9.70165e-06 0)
(-2.08945e-08 8.05819e-06 0)
(-4.21686e-07 6.59443e-06 0)
(-6.36292e-07 5.30892e-06 0)
(-6.91515e-07 4.20685e-06 0)
(-6.12627e-07 3.29173e-06 0)
(-4.27309e-07 2.58693e-06 0)
(-1.65145e-07 2.16595e-06 0)
(1.23429e-07 2.20649e-06 0)
(3.48799e-07 3.06875e-06 0)
(2.67673e-07 4.56031e-06 0)
(2.41288e-08 -4.41701e-07 0)
(2.25142e-07 -6.50229e-07 0)
(5.77161e-07 -4.56578e-07 0)
(1.00363e-06 -3.34493e-08 0)
(1.43033e-06 4.74177e-07 0)
(1.80465e-06 1.0384e-06 0)
(2.09756e-06 1.69223e-06 0)
(2.29052e-06 2.46555e-06 0)
(2.36896e-06 3.37364e-06 0)
(2.31816e-06 4.42205e-06 0)
(2.12221e-06 5.61203e-06 0)
(1.76366e-06 6.94258e-06 0)
(1.22445e-06 8.41058e-06 0)
(4.83908e-07 1.00125e-05 0)
(-4.78826e-07 1.1742e-05 0)
(-1.68412e-06 1.35899e-05 0)
(-3.15381e-06 1.55458e-05 0)
(-4.90893e-06 1.75952e-05 0)
(-6.97015e-06 1.97208e-05 0)
(-9.35699e-06 2.19004e-05 0)
(-1.20874e-05 2.41077e-05 0)
(-1.51772e-05 2.63112e-05 0)
(-1.86392e-05 2.84733e-05 0)
(-2.24826e-05 3.05506e-05 0)
(-2.67111e-05 3.24933e-05 0)
(-3.1322e-05 3.42454e-05 0)
(-3.63048e-05 3.57442e-05 0)
(-4.16404e-05 3.69206e-05 0)
(-4.72993e-05 3.7699e-05 0)
(-5.32401e-05 3.79981e-05 0)
(-5.94072e-05 3.77321e-05 0)
(-6.5729e-05 3.68123e-05 0)
(-7.21159e-05 3.51487e-05 0)
(-7.84589e-05 3.26533e-05 0)
(-8.46284e-05 2.92431e-05 0)
(-9.04727e-05 2.48447e-05 0)
(-9.58183e-05 1.93999e-05 0)
(-0.00010047 1.28712e-05 0)
(-0.000104213 5.24961e-06 0)
(-0.00010682 -3.43817e-06 0)
(-0.000108054 -1.31174e-05 0)
(-0.000107675 -2.36727e-05 0)
(-0.000105455 -3.49229e-05 0)
(-0.000101198 -4.66272e-05 0)
(-9.47499e-05 -5.84846e-05 0)
(-8.60206e-05 -7.0139e-05 0)
(-7.50009e-05 -8.11904e-05 0)
(-6.17766e-05 -9.12137e-05 0)
(-4.65414e-05 -9.97827e-05 0)
(-2.96011e-05 -0.000106497 0)
(-1.137e-05 -0.000111016 0)
(7.6696e-06 -0.000113081 0)
(2.69695e-05 -0.00011256 0)
(4.59378e-05 -0.000109431 0)
(6.40112e-05 -0.000103806 0)
(8.06769e-05 -9.59156e-05 0)
(9.54964e-05 -8.60876e-05 0)
(0.00010813 -7.47225e-05 0)
(0.00011835 -6.22628e-05 0)
(0.000126041 -4.91626e-05 0)
(0.000131192 -3.58627e-05 0)
(0.000133888 -2.2767e-05 0)
(0.00013429 -1.02281e-05 0)
(0.000132621 1.46165e-06 0)
(0.000129142 1.20822e-05 0)
(0.000124134 2.14763e-05 0)
(0.00011789 2.95477e-05 0)
(0.000110695 3.62571e-05 0)
(0.00010282 4.16142e-05 0)
(9.45137e-05 4.56669e-05 0)
(8.59986e-05 4.84947e-05 0)
(7.74679e-05 5.01992e-05 0)
(6.90837e-05 5.08973e-05 0)
(6.0979e-05 5.07134e-05 0)
(5.32582e-05 4.97755e-05 0)
(4.5999e-05 4.8208e-05 0)
(3.9258e-05 4.6132e-05 0)
(3.30742e-05 4.36645e-05 0)
(2.74621e-05 4.09038e-05 0)
(2.24243e-05 3.79465e-05 0)
(1.79538e-05 3.48697e-05 0)
(1.40318e-05 3.17464e-05 0)
(1.0634e-05 2.86367e-05 0)
(7.73027e-06 2.55897e-05 0)
(5.28835e-06 2.26455e-05 0)
(3.27229e-06 1.98347e-05 0)
(1.64508e-06 1.71854e-05 0)
(3.71845e-07 1.47136e-05 0)
(-5.83932e-07 1.24333e-05 0)
(-1.25803e-06 1.03535e-05 0)
(-1.68311e-06 8.47796e-06 0)
(-1.89089e-06 6.81073e-06 0)
(-1.91087e-06 5.35176e-06 0)
(-1.77266e-06 4.10315e-06 0)
(-1.50292e-06 3.06866e-06 0)
(-1.12783e-06 2.2732e-06 0)
(-6.77537e-07 1.80309e-06 0)
(-2.04094e-07 1.86845e-06 0)
(1.94552e-07 2.91601e-06 0)
(2.47733e-07 4.83037e-06 0)
(3.65496e-08 -5.87049e-07 0)
(3.32648e-07 -9.82256e-07 0)
(8.00733e-07 -9.02163e-07 0)
(1.35011e-06 -5.18213e-07 0)
(1.90421e-06 1.26177e-08 0)
(2.41266e-06 6.40215e-07 0)
(2.84601e-06 1.38126e-06 0)
(3.18424e-06 2.25943e-06 0)
(3.41112e-06 3.28829e-06 0)
(3.51023e-06 4.47394e-06 0)
(3.46414e-06 5.81873e-06 0)
(3.25391e-06 7.32272e-06 0)
(2.86005e-06 8.98442e-06 0)
(2.26039e-06 1.08002e-05 0)
(1.43121e-06 1.27654e-05 0)
(3.49921e-07 1.4872e-05 0)
(-1.00823e-06 1.71096e-05 0)
(-2.66824e-06 1.94641e-05 0)
(-4.65469e-06 2.19173e-05 0)
(-6.99187e-06 2.44457e-05 0)