/*--------------------------------*- C++ -*----------------------------------*\
| =========                 |                                                 |
| \\      /  F ield         | OpenFOAM: The Open Source CFD Toolbox           |
|  \\    /   O peration     | Version:  2312                                  |
|   \\  /    A nd           | Website:  www.openfoam.com                      |
|    \\/     M anipulation  |                                                 |
\*---------------------------------------------------------------------------*/
FoamFile
{
    version     2.0;
    format      ascii;
    arch        "LSB;label=32;scalar=64";
    class       surfaceScalarField;
    location    "0.15";
    object      alphaPhi0.water;
}
// * * * * * * * * * * * * * * * * * * * * * * * * * * * * * * * * * * * * * //

dimensions      [0 3 -1 0 0 0 0];

oriented        oriented;

internalField   nonuniform List<scalar> 
19800
(
6.27157e-14
-6.13977e-14
-8.40109e-12
8.4637e-12
-1.12156e-11
2.81436e-12
-1.15146e-11
2.98789e-13
-1.06056e-11
-9.09135e-13
-9.39414e-12
-1.21152e-12
-8.28158e-12
-1.11267e-12
-7.36932e-12
-9.12482e-13
-6.67951e-12
-6.90207e-13
-6.17868e-12
-5.01335e-13
-5.86287e-12
-3.16307e-13
-5.68177e-12
-1.8143e-13
-5.61581e-12
-6.60881e-14
-5.66552e-12
4.96384e-14
-5.83484e-12
1.6913e-13
-6.13486e-12
2.99619e-13
-6.55075e-12
4.154e-13
-7.09938e-12
5.48255e-13
-7.78106e-12
6.8159e-13
-8.61601e-12
8.35117e-13
-9.61361e-12
9.97869e-13
-1.0782e-11
1.16857e-12
-1.21244e-11
1.34228e-12
-1.364e-11
1.51533e-12
-1.53207e-11
1.68042e-12
-1.71589e-11
1.83809e-12
-1.9141e-11
1.98216e-12
-2.12488e-11
2.10809e-12
-2.34578e-11
2.20956e-12
-2.5743e-11
2.28585e-12
-2.80753e-11
2.33294e-12
-3.04236e-11
2.34864e-12
-3.27588e-11
2.33542e-12
-3.50554e-11
2.29683e-12
-3.72818e-11
2.22695e-12
-3.9408e-11
2.12683e-12
-4.14055e-11
1.99813e-12
-4.32598e-11
1.8547e-12
-4.49431e-11
1.68351e-12
-4.6456e-11
1.51331e-12
-4.77758e-11
1.32044e-12
-4.88857e-11
1.11042e-12
-4.98114e-11
9.259e-13
-5.05497e-11
7.38275e-13
-5.1106e-11
5.56267e-13
-5.15095e-11
4.03574e-13
-5.17706e-11
2.61035e-13
-5.19251e-11
1.54636e-13
-5.19927e-11
6.79199e-14
-5.2019e-11
2.67575e-14
-5.2028e-11
9.2608e-15
-5.20538e-11
2.53821e-14
-5.21265e-11
7.15437e-14
-5.22733e-11
1.45731e-13
-5.25206e-11
2.4671e-13
-5.28894e-11
3.68377e-13
-5.33839e-11
4.94069e-13
-5.40131e-11
6.2909e-13
-5.47783e-11
7.65616e-13
-5.56699e-11
8.91816e-13
-5.66881e-11
1.01791e-12
-5.78049e-11
1.11705e-12
-5.90015e-11
1.1971e-12
-6.02617e-11
1.26069e-12
-6.15449e-11
1.28344e-12
-6.28265e-11
1.2813e-12
-6.40699e-11
1.24326e-12
-6.52491e-11
1.17992e-12
-6.63253e-11
1.0762e-12
-6.72703e-11
9.44493e-13
-6.80538e-11
7.83095e-13
-6.86504e-11
5.96224e-13
-6.90335e-11
3.8345e-13
-6.91871e-11
1.54531e-13
-6.90973e-11
-8.87454e-14
-6.87618e-11
-3.34508e-13
-6.81625e-11
-5.99686e-13
-6.73009e-11
-8.62575e-13
-6.61817e-11
-1.11998e-12
-6.48093e-11
-1.3731e-12
-6.31908e-11
-1.61782e-12
-6.13354e-11
-1.85387e-12
-5.92597e-11
-2.07568e-12
-5.69798e-11
-2.27976e-12
-5.45133e-11
-2.46658e-12
-5.18724e-11
-2.6408e-12
-4.90591e-11
-2.81324e-12
-4.60687e-11
-2.99121e-12
-4.28918e-11
-3.17661e-12
-3.9524e-11
-3.36717e-12
-3.59711e-11
-3.55311e-12
-3.22476e-11
-3.72232e-12
-2.83815e-11
-3.86705e-12
-2.44084e-11
-3.97316e-12
-2.03746e-11
-4.03517e-12
-1.63139e-11
-4.06152e-12
-1.22432e-11
-4.07045e-12
-8.16207e-12
-4.08255e-12
-4.03825e-12
-4.1256e-12
-4.03842e-12
8.62723e-12
-8.68875e-12
8.7117e-12
8.37892e-12
5.33942e-12
6.18641e-12
2.70539e-12
2.93266e-12
1.02165e-12
7.74446e-13
-1.94206e-14
-1.70733e-13
-6.60611e-13
-4.7199e-13
-1.11432e-12
-4.59537e-13
-1.48776e-12
-3.17662e-13
-1.86988e-12
-1.20009e-13
-2.27114e-12
8.44234e-14
-2.76283e-12
3.1002e-13
-3.35446e-12
5.25375e-13
-4.07174e-12
7.66602e-13
-4.92373e-12
1.02054e-12
-5.90401e-12
1.27921e-12
-7.03616e-12
1.54707e-12
-8.3195e-12
1.83154e-12
-9.77242e-12
2.13483e-12
-1.13936e-11
2.45672e-12
-1.31856e-11
2.79006e-12
-1.51496e-11
3.13238e-12
-1.72811e-11
3.47318e-12
-1.95773e-11
3.81089e-12
-2.20297e-11
4.13247e-12
-2.46248e-11
4.43316e-12
-2.73448e-11
4.70268e-12
-3.01645e-11
4.92879e-12
-3.30691e-11
5.11533e-12
-3.60302e-11
5.24791e-12
-3.90163e-11
5.31973e-12
-4.19971e-11
5.33002e-12
-4.49343e-11
5.27327e-12
-4.77824e-11
5.1459e-12
-5.05184e-11
4.9642e-12
-5.30927e-11
4.70216e-12
-5.54747e-11
4.3807e-12
-5.76334e-11
4.01377e-12
-5.95326e-11
3.58322e-12
-6.11549e-11
3.13612e-12
-6.24659e-11
2.63184e-12
-6.34738e-11
2.11864e-12
-6.41578e-11
1.60992e-12
-6.45297e-11
1.11032e-12
-6.46114e-11
6.382e-13
-6.44061e-11
1.98431e-13
-6.39686e-11
-1.76281e-13
-6.33186e-11
-4.94953e-13
-6.25109e-11
-7.39038e-13
-6.15847e-11
-8.99194e-13
-6.05978e-11
-9.78387e-13
-5.96014e-11
-9.7259e-13
-5.86449e-11
-8.86456e-13
-5.77753e-11
-7.24928e-13
-5.7042e-11
-4.87107e-13
-5.64843e-11
-1.89606e-13
-5.61098e-11
1.19428e-13
-5.59439e-11
4.62949e-13
-5.59838e-11
8.05764e-13
-5.62487e-11
1.15693e-12
-5.67201e-11
1.489e-12
-5.73739e-11
1.77141e-12
-5.81981e-11
2.02234e-12
-5.91735e-11
2.23571e-12
-6.02457e-11
2.355e-12
-6.13817e-11
2.4172e-12
-6.25406e-11
2.40246e-12
-6.36883e-11
2.32795e-12
-6.4784e-11
2.17135e-12
-6.57894e-11
1.94906e-12
-6.668e-11
1.67405e-12
-6.74043e-11
1.32087e-12
-6.79406e-11
9.20813e-13
-6.82682e-11
4.8397e-13
-6.83735e-11
1.70025e-14
-6.82193e-11
-4.89766e-13
-6.78046e-11
-1.01585e-12
-6.71222e-11
-1.54552e-12
-6.61715e-11
-2.06975e-12
-6.49608e-11
-2.58324e-12
-6.34969e-11
-3.08098e-12
-6.17777e-11
-3.5718e-12
-5.98115e-11
-4.04236e-12
-5.76072e-11
-4.48389e-12
-5.51755e-11
-4.89832e-12
-5.25208e-11
-5.29662e-12
-4.96501e-11
-5.68275e-12
-4.65814e-11
-6.05981e-12
-4.33285e-11
-6.43011e-12
-3.99053e-11
-6.78814e-12
-3.6342e-11
-7.1172e-12
-3.26466e-11
-7.41789e-12
-2.88324e-11
-7.68236e-12
-2.4914e-11
-7.89253e-12
-2.09051e-11
-8.04397e-12
-1.68243e-11
-8.14452e-12
-1.26838e-11
-8.21117e-12
-8.501e-12
-8.26459e-12
-4.22683e-12
-8.4004e-12
-8.2659e-12
2.96594e-12
-1.16549e-11
6.51558e-12
4.82921e-12
6.60068e-12
6.1013e-12
5.53415e-12
3.99911e-12
4.26171e-12
2.04662e-12
3.14732e-12
9.43151e-13
2.2106e-12
4.64014e-13
1.4846e-12
2.65673e-13
8.62351e-13
3.0391e-13
2.59241e-13
4.82677e-13
-3.8617e-13
7.29701e-13
-1.07175e-12
9.95635e-13
-1.86265e-12
1.31628e-12
-2.76565e-12
1.66941e-12
-3.78435e-12
2.03885e-12
-4.95161e-12
2.4461e-12
-6.27569e-12
2.87102e-12
-7.76194e-12
3.31799e-12
-9.41375e-12
3.787e-12
-1.12308e-11
4.27391e-12
-1.32174e-11
4.7763e-12
-1.53693e-11
5.28339e-12
-1.76824e-11
5.78515e-12
-2.01478e-11
6.27527e-12
-2.27571e-11
6.74135e-12
-2.54967e-11
7.17289e-12
-2.83509e-11
7.55761e-12
-3.13042e-11
7.88304e-12
-3.43274e-11
8.13955e-12
-3.74018e-11
8.32308e-12
-4.04933e-11
8.41181e-12
-4.3575e-11
8.41238e-12
-4.66078e-11
8.3069e-12
-4.95449e-11
8.08401e-12
-5.23564e-11
7.77657e-12
-5.50098e-11
7.3558e-12
-5.74447e-11
6.81542e-12
-5.96514e-11
6.21989e-12
-6.15654e-11
5.49675e-12
-6.31841e-11
4.75458e-12
-6.44852e-11
3.93298e-12
-6.54353e-11
3.06908e-12
-6.60381e-11
2.21334e-12
-6.63005e-11
1.37326e-12
-6.62381e-11
5.76212e-13
-6.58815e-11
-1.57997e-13
-6.52449e-11
-8.12599e-13
-6.43821e-11
-1.35701e-12
-6.33422e-11
-1.77796e-12
-6.21772e-11
-2.06401e-12
-6.09476e-11
-2.20886e-12
-5.97082e-11
-2.21305e-12
-5.85153e-11
-2.07993e-12
-5.74212e-11
-1.81931e-12
-5.64633e-11
-1.44576e-12
-5.56733e-11
-9.80387e-13
-5.51571e-11
-3.97292e-13
-5.48339e-11
1.39141e-13
-5.47673e-11
7.38503e-13
-5.49088e-11
1.29815e-12
-5.53235e-11
1.90338e-12
-5.59259e-11
2.37358e-12
-5.67151e-11
2.81127e-12
-5.76484e-11
3.1677e-12
-5.87348e-11
3.44064e-12
-5.9876e-11
3.55889e-12
-6.10564e-11
3.58301e-12
-6.22304e-11
3.50188e-12
-6.33627e-11
3.30359e-12
-6.44127e-11
2.99883e-12
-6.53514e-11
2.613e-12
-6.61297e-11
2.09901e-12
-6.67361e-11
1.52703e-12
-6.7134e-11
8.8261e-13
-6.73006e-11
1.83543e-13
-6.72374e-11
-5.53279e-13
-6.69112e-11
-1.34168e-12
-6.6327e-11
-2.12954e-12
-6.54748e-11
-2.92134e-12
-6.43548e-11
-3.70237e-12
-6.29719e-11
-4.46403e-12
-6.13215e-11
-5.22275e-12
-5.94079e-11
-5.95518e-12
-5.72383e-11
-6.65295e-12
-5.48239e-11
-7.31274e-12
-5.21758e-11
-7.94487e-12
-4.93068e-11
-8.55167e-12
-4.62441e-11
-9.12296e-12
-4.30029e-11
-9.67078e-12
-3.96114e-11
-1.01806e-11
-3.60798e-11
-1.06501e-11
-3.24165e-11
-1.10802e-11
-2.86419e-11
-1.14565e-11
-2.47663e-11
-1.17687e-11
-2.07966e-11
-1.20138e-11
-1.67477e-11
-1.21954e-11
-1.26271e-11
-1.23332e-11
-8.4599e-12
-1.24346e-11
-4.21575e-12
-1.26446e-11
-1.24815e-11
5.11208e-13
-1.21662e-11
3.27387e-12
2.06672e-12
4.50132e-12
4.87393e-12
4.58826e-12
3.91198e-12
4.12541e-12
2.50896e-12
3.50869e-12
1.55917e-12
2.89469e-12
1.07731e-12
2.2732e-12
8.86633e-13
1.66004e-12
9.16809e-13
1.05357e-12
1.08916e-12
4.16815e-13
1.36662e-12
-3.03536e-13
1.71615e-12
-1.11463e-12
2.12736e-12
-2.03339e-12
2.58793e-12
-3.0847e-12
3.08977e-12
-4.27663e-12
3.63773e-12
-5.62238e-12
4.21673e-12
-7.13182e-12
4.82764e-12
-8.81011e-12
5.46544e-12
-1.06594e-11
6.12295e-12
-1.26804e-11
6.79626e-12
-1.48715e-11
7.47314e-12
-1.72294e-11
8.14169e-12
-1.97461e-11
8.79118e-12
-2.24125e-11
9.40762e-12
-2.5216e-11
9.97691e-12
-2.81423e-11
1.04847e-11
-3.11726e-11
1.09141e-11
-3.4284e-11
1.12517e-11
-3.7447e-11
1.14866e-11
-4.06383e-11
1.16036e-11
-4.38247e-11
1.15995e-11
-4.69631e-11
1.1446e-11
-5.00063e-11
1.1128e-11
-5.29229e-11
1.06935e-11
-5.56642e-11
1.00968e-11
-5.81942e-11
9.34433e-12
-6.04764e-11
8.50085e-12
-6.24588e-11
7.47824e-12
-6.41268e-11
6.42217e-12
-6.54401e-11
5.24655e-12
-6.63928e-11
4.02254e-12
-6.69772e-11
2.79877e-12
-6.7192e-11
1.58879e-12
-6.70582e-11
4.42601e-13
-6.65958e-11
-6.20305e-13
-6.58461e-11
-1.56168e-12
-6.48526e-11
-2.34965e-12
-6.36693e-11
-2.96064e-12
-6.23557e-11
-3.3778e-12
-6.09759e-11
-3.5894e-12
-5.95917e-11
-3.59777e-12
-5.82653e-11
-3.40653e-12
-5.70541e-11
-3.03085e-12
-5.60087e-11
-2.49246e-12
-5.51723e-11
-1.81827e-12
-5.4533e-11
-1.03716e-12
-5.41877e-11
-2.06749e-13
-5.41001e-11
6.4968e-13
-5.42982e-11
1.49551e-12
-5.47135e-11
2.31834e-12
-5.53907e-11
3.05009e-12
-5.6264e-11
3.68378e-12
-5.72966e-11
4.19943e-12
-5.84509e-11
4.59458e-12
-5.969e-11
4.7986e-12
-6.09803e-11
4.87332e-12
-6.2253e-11
4.77434e-12
-6.34865e-11
4.53733e-12
-6.46358e-11
4.14756e-12
-6.5645e-11
3.62158e-12
-6.65102e-11
2.96397e-12
-6.719e-11
2.20692e-12
-6.76326e-11
1.32565e-12
-6.7859e-11
4.10585e-13
-6.78208e-11
-5.90868e-13
-6.75299e-11
-1.63218e-12
-6.69732e-11
-2.68629e-12
-6.61365e-11
-3.75809e-12
-6.50187e-11
-4.82001e-12
-6.36224e-11
-5.86016e-12
-6.19488e-11
-6.89688e-12
-6.0008e-11
-7.89527e-12
-5.78071e-11
-8.85326e-12
-5.53592e-11
-9.76138e-12
-5.26843e-11
-1.06201e-11
-4.9799e-11
-1.14377e-11
-4.67117e-11
-1.22124e-11
-4.34438e-11
-1.29373e-11
-4.00113e-11
-1.36135e-11
-3.64293e-11
-1.42309e-11
-3.27211e-11
-1.47883e-11
-2.88987e-11
-1.52782e-11
-2.49805e-11
-1.56869e-11
-2.09729e-11
-1.6023e-11
-1.68781e-11
-1.62915e-11
-1.27174e-11
-1.64939e-11
-8.5041e-12
-1.66486e-11
-4.22899e-12
-1.69201e-11
-1.67094e-11
-7.94751e-13
-1.13713e-11
1.06132e-12
2.10971e-13
2.5371e-12
3.39818e-12
3.1843e-12
3.26443e-12
3.27351e-12
2.41915e-12
3.07603e-12
1.75608e-12
2.74741e-12
1.40561e-12
2.35288e-12
1.28117e-12
1.90332e-12
1.3666e-12
1.39883e-12
1.59395e-12
8.26852e-13
1.93882e-12
1.69888e-13
2.37311e-12
-5.90985e-13
2.88793e-12
-1.47552e-12
3.47191e-12
-2.49837e-12
4.11198e-12
-3.65493e-12
4.79383e-12
-4.97454e-12
5.53623e-12
-6.46309e-12
6.3163e-12
-8.12651e-12
7.12879e-12
-9.96974e-12
7.96558e-12
-1.19925e-11
8.81794e-12
-1.41953e-11
9.67467e-12
-1.65758e-11
1.05215e-11
-1.91284e-11
1.13436e-11
-2.18445e-11
1.21242e-11
-2.47128e-11
1.28457e-11
-2.77173e-11
1.34895e-11
-3.08405e-11
1.40375e-11
-3.40595e-11
1.44708e-11
-3.73432e-11
1.47704e-11
-4.06716e-11
1.49322e-11
-4.39922e-11
1.49206e-11
-4.72727e-11
1.47272e-11
-5.04675e-11
1.43234e-11
-5.35231e-11
1.37491e-11
-5.64054e-11
1.29783e-11
-5.90716e-11
1.20092e-11
-6.1461e-11
1.08889e-11
-6.35507e-11
9.56709e-12
-6.52765e-11
8.14801e-12
-6.66357e-11
6.60649e-12
-6.76047e-11
4.99257e-12
-6.81641e-11
3.35899e-12
-6.83319e-11
1.75697e-12
-6.81062e-11
2.16644e-13
-6.75217e-11
-1.20482e-12
-6.66215e-11
-2.46129e-12
-6.54553e-11
-3.51532e-12
-6.40822e-11
-4.3337e-12
-6.257e-11
-4.89052e-12
-6.09881e-11
-5.17175e-12
-5.94091e-11
-5.17704e-12
-5.79027e-11
-4.91345e-12
-5.65329e-11
-4.40155e-12
-5.53555e-11
-3.67102e-12
-5.4415e-11
-2.75975e-12
-5.37417e-11
-1.71091e-12
-5.33453e-11
-6.03733e-13
-5.3266e-11
5.69126e-13
-5.34983e-11
1.72724e-12
-5.4002e-11
2.82235e-12
-5.47674e-11
3.81529e-12
-5.57603e-11
4.67611e-12
-5.69381e-11
5.37705e-12
-5.82267e-11
5.88304e-12
-5.96231e-11
6.19511e-12
-6.10652e-11
6.31528e-12
-6.24935e-11
6.20218e-12
-6.38705e-11
5.9142e-12
-6.51558e-11
5.43204e-12
-6.62882e-11
4.75346e-12
-6.72564e-11
3.93307e-12
-6.80153e-11
2.96673e-12
-6.8557e-11
1.86757e-12
-6.8843e-11
6.96659e-13
-6.88535e-11
-5.80147e-13
-6.85756e-11
-1.91108e-12
-6.8033e-11
-3.22876e-12
-6.71923e-11
-4.59825e-12
-6.60572e-11
-5.95576e-12
-6.46269e-11
-7.29004e-12
-6.29208e-11
-8.60237e-12
-6.0946e-11
-9.87059e-12
-5.87092e-11
-1.10901e-11
-5.62233e-11
-1.22482e-11
-5.35087e-11
-1.33377e-11
-5.05697e-11
-1.4377e-11
-4.74294e-11
-1.53527e-11
-4.41032e-11
-1.62621e-11
-4.061e-11
-1.71069e-11
-3.69659e-11
-1.78747e-11
-3.31942e-11
-1.85608e-11
-2.93135e-11
-1.91608e-11
-2.53274e-11
-1.96733e-11
-2.12499e-11
-2.01026e-11
-1.70879e-11
-2.04518e-11
-1.28596e-11
-2.0723e-11
-8.57827e-12
-2.09288e-11
-4.2438e-12
-2.12554e-11
-2.09548e-11
-1.07931e-12
-1.02918e-11
1.55551e-13
-1.0236e-12
1.45962e-12
2.09402e-12
2.23965e-12
2.48401e-12
2.6134e-12
2.04501e-12
2.70647e-12
1.66289e-12
2.63224e-12
1.48011e-12
2.42118e-12
1.49274e-12
2.12273e-12
1.66558e-12
1.73779e-12
1.9792e-12
1.26244e-12
2.41414e-12
6.82407e-13
2.95273e-12
-1.13305e-14
3.58091e-12
-8.3396e-13
4.29356e-12
-1.7952e-12
5.07231e-12
-2.91801e-12
5.91609e-12
-4.19714e-12
6.81525e-12
-5.65334e-12
7.7726e-12
-7.29185e-12
8.76722e-12
-9.11869e-12
9.79197e-12
-1.11369e-11
1.08355e-11
-1.33488e-11
1.18862e-11
-1.57533e-11
1.29262e-11
-1.83454e-11
1.39362e-11
-2.11199e-11
1.48991e-11
-2.40664e-11
1.57922e-11
-2.71704e-11
1.65931e-11
-3.04121e-11
1.72787e-11
-3.37669e-11
1.7825e-11
-3.72068e-11
1.82099e-11
-4.06935e-11
1.84188e-11
-4.41879e-11
1.84154e-11
-4.76524e-11
1.81924e-11
-5.10405e-11
1.77119e-11
-5.42942e-11
1.70026e-11
-5.73646e-11
1.60479e-11
-6.02041e-11
1.48475e-11
-6.27509e-11
1.34348e-11
-6.49709e-11
1.17868e-11
-6.68037e-11
9.98115e-12
-6.82304e-11
8.03392e-12
-6.92255e-11
5.98845e-12
-6.97619e-11
3.89566e-12
-6.98571e-11
1.85196e-12
-6.95131e-11
-1.27834e-13
-6.87684e-11
-1.94976e-12
-6.76696e-11
-3.55986e-12
-6.6269e-11
-4.91576e-12
-6.46389e-11
-5.96413e-12
-6.2856e-11
-6.67404e-12
-6.10014e-11
-7.02688e-12
-5.91575e-11
-7.02142e-12
-5.74055e-11
-6.66621e-12
-5.58185e-11
-5.98926e-12
-5.44605e-11
-5.02922e-12
-5.33823e-11
-3.83814e-12
-5.26206e-11
-2.47325e-12
-5.22133e-11
-1.01167e-12
-5.21332e-11
4.88707e-13
-5.24172e-11
2.0116e-12
-5.30193e-11
3.42551e-12
-5.3914e-11
4.70996e-12
-5.50683e-11
5.82991e-12
-5.64241e-11
6.73301e-12
-5.79175e-11
7.3763e-12
-5.95144e-11
7.79157e-12
-6.1167e-11
7.96748e-12
-6.2801e-11
7.83575e-12
-6.43611e-11
7.47398e-12
-6.58251e-11
6.89587e-12
-6.71165e-11
6.04524e-12
-6.82192e-11
5.0364e-12
-6.90873e-11
3.83485e-12
-6.9734e-11
2.51382e-12
-7.00973e-11
1.05923e-12
-7.01425e-11
-5.34625e-13
-6.99325e-11
-2.12181e-12
-6.93788e-11
-3.7824e-12
-6.85341e-11
-5.44237e-12
-6.73807e-11
-7.10982e-12
-6.59275e-11
-8.74292e-12
-6.41877e-11
-1.0342e-11
-6.21688e-11
-1.18904e-11
-5.9881e-11
-1.33794e-11
-5.73341e-11
-1.47959e-11
-5.45473e-11
-1.61249e-11
-5.15375e-11
-1.73861e-11
-4.83265e-11
-1.85641e-11
-4.49262e-11
-1.9661e-11
-4.13592e-11
-2.06751e-11
-3.76407e-11
-2.15937e-11
-3.37912e-11
-2.24095e-11
-2.98286e-11
-2.31239e-11
-2.57591e-11
-2.37405e-11
-2.15995e-11
-2.42644e-11
-1.73545e-11
-2.46962e-11
-1.30437e-11
-2.50355e-11
-8.6842e-12
-2.52892e-11
-4.27145e-12
-2.56671e-11
-2.52259e-11
-9.71435e-13
-9.32007e-12
-1.41883e-13
-1.85302e-12
9.46407e-13
1.00554e-12
1.75296e-12
1.6772e-12
2.26475e-12
1.53321e-12
2.53618e-12
1.39187e-12
2.62147e-12
1.39556e-12
2.57553e-12
1.53944e-12
2.42187e-12
1.81975e-12
2.15526e-12
2.24592e-12
1.78441e-12
2.78469e-12
1.29749e-12
3.43896e-12
6.84978e-13
4.19245e-12
-6.1709e-14
5.03918e-12
-9.62225e-13
5.97195e-12
-2.0225e-12
6.97595e-12
-3.25922e-12
8.05197e-12
-4.66655e-12
9.18011e-12
-6.27275e-12
1.03735e-11
-8.0783e-12
1.15975e-11
-1.00903e-11
1.28476e-11
-1.23112e-11
1.41076e-11
-1.47434e-11
1.53591e-11
-1.73849e-11
1.65781e-11
-2.02302e-11
1.77442e-11
-2.32701e-11
1.88314e-11
-2.64904e-11
1.98123e-11
-2.98718e-11
2.0659e-11
-3.33902e-11
2.13423e-11
-3.70146e-11
2.18337e-11
-4.07024e-11
2.21065e-11
-4.44189e-11
2.21323e-11
-4.81115e-11
2.18855e-11
-5.17443e-11
2.1345e-11
-5.52459e-11
2.0504e-11
-5.85578e-11
1.93591e-11
-6.16243e-11
1.79135e-11
-6.43734e-11
1.61837e-11
-6.67677e-11
1.41811e-11
-6.87409e-11
1.19545e-11
-7.02506e-11
9.54409e-12
-7.12795e-11
7.01763e-12
-7.18062e-11
4.42218e-12
-7.18131e-11
1.85816e-12
-7.13223e-11
-6.19253e-13
-7.03776e-11
-2.89455e-12
-6.902e-11
-4.91712e-12
-6.7317e-11
-6.61856e-12
-6.53518e-11
-7.92983e-12
-6.32155e-11
-8.81134e-12
-6.10044e-11
-9.23862e-12
-5.88136e-11
-9.2127e-12
-5.67409e-11
-8.73929e-12
-5.48719e-11
-7.85849e-12
-5.32803e-11
-6.62043e-12
-5.20261e-11
-5.09218e-12
-5.11518e-11
-3.34825e-12
-5.06919e-11
-1.47188e-12
-5.06611e-11
4.58577e-13
-5.10082e-11
2.35956e-12
-5.17369e-11
4.15467e-12
-5.28098e-11
5.78269e-12
-5.41589e-11
7.17885e-12
-5.57404e-11
8.31478e-12
-5.75067e-11
9.1425e-12
-5.93734e-11
9.65762e-12
-6.12674e-11
9.86112e-12
-6.31591e-11
9.72716e-12
-6.49738e-11
9.28822e-12
-6.66363e-11
8.55811e-12
-6.81383e-11
7.54714e-12
-6.94094e-11
6.30702e-12
-7.04377e-11
4.86242e-12
-7.11791e-11
3.25524e-12
-7.16163e-11
1.49573e-12
-7.17612e-11
-3.89519e-13
-7.15675e-11
-2.31525e-12
-7.10577e-11
-4.29263e-12
-7.01886e-11
-6.31115e-12
-6.90172e-11
-8.28069e-12
-6.75339e-11
-1.02259e-11
-6.57476e-11
-1.21294e-11
-6.36693e-11
-1.39687e-11
-6.13134e-11
-1.57362e-11
-5.86896e-11
-1.7421e-11
-5.58103e-11
-1.90035e-11
-5.27122e-11
-2.04842e-11
-4.94083e-11
-2.18687e-11
-4.59161e-11
-2.31528e-11
-4.22563e-11
-2.43352e-11
-3.84442e-11
-2.54049e-11
-3.45004e-11
-2.63528e-11
-3.04398e-11
-2.71852e-11
-2.62756e-11
-2.79041e-11
-2.2021e-11
-2.85181e-11
-1.76861e-11
-2.90315e-11
-1.3285e-11
-2.94367e-11
-8.82994e-12
-2.97431e-11
-4.32022e-12
-3.01777e-11
-2.9547e-11
-7.72813e-13
-8.54707e-12
-1.41527e-13
-2.48441e-12
7.60112e-13
1.03667e-13
1.56632e-12
8.70924e-13
2.15547e-12
9.44402e-13
2.54091e-12
1.00716e-12
2.77644e-12
1.1609e-12
2.85618e-12
1.46041e-12
2.8282e-12
1.84812e-12
2.68501e-12
2.38916e-12
2.42291e-12
3.04657e-12
2.03512e-12
3.82629e-12
1.51454e-12
4.71238e-12
8.48752e-13
5.70427e-12
3.4315e-14
6.78586e-12
-9.52909e-13
7.96295e-12
-2.12505e-12
9.22416e-12
-3.49512e-12
1.05504e-11
-5.05608e-12
1.19347e-11
-6.83422e-12
1.33761e-11
-8.83426e-12
1.48484e-11
-1.10641e-11
1.63383e-11
-1.35304e-11
1.7826e-11
-1.6227e-11
1.92748e-11
-1.9153e-11
2.06696e-11
-2.22997e-11
2.19771e-11
-2.56545e-11
2.31659e-11
-2.91989e-11
2.42022e-11
-3.29083e-11
2.50508e-11
-3.67507e-11
2.56755e-11
-4.06844e-11
2.60401e-11
-4.46774e-11
2.61255e-11
-4.86573e-11
2.58656e-11
-5.25802e-11
2.52677e-11
-5.63833e-11
2.43067e-11
-5.99977e-11
2.29732e-11
-6.33484e-11
2.1264e-11
-6.63653e-11
1.92004e-11
-6.89823e-11
1.6798e-11
-7.11358e-11
1.41079e-11
-7.27727e-11
1.11811e-11
-7.3847e-11
8.09202e-12
-7.43442e-11
4.91889e-12
-7.42536e-11
1.76688e-12
-7.36011e-11
-1.27185e-12
-7.23939e-11
-4.10105e-12
-7.07036e-11
-6.60674e-12
-6.86178e-11
-8.70437e-12
-6.62305e-11
-1.0318e-11
-6.36435e-11
-1.13993e-11
-6.09728e-11
-1.19101e-11
-5.83461e-11
-1.18398e-11
-5.58675e-11
-1.12179e-11
-5.36429e-11
-1.0083e-11
-5.17608e-11
-8.50212e-12
-5.02923e-11
-6.56052e-12
-4.92859e-11
-4.35503e-12
-4.87713e-11
-1.98654e-12
-4.8767e-11
4.54892e-13
-4.9221e-11
2.81381e-12
-5.01185e-11
5.05205e-12
-5.14052e-11
7.06945e-12
-5.30269e-11
8.80094e-12
-5.49131e-11
1.02013e-11
-5.69896e-11
1.1219e-11
-5.91821e-11
1.18499e-11
-6.14038e-11
1.20824e-11
-6.35967e-11
1.19191e-11
-6.56953e-11
1.13855e-11
-6.76421e-11
1.05038e-11
-6.93732e-11
9.27737e-12
-7.08498e-11
7.78316e-12
-7.20499e-11
6.06278e-12
-7.29221e-11
4.12815e-12
-7.34665e-11
2.03958e-12
-7.3679e-11
-1.77698e-13
-7.3531e-11
-2.46276e-12
-7.30307e-11
-4.79315e-12
-7.21885e-11
-7.15328e-12
-7.09814e-11
-9.48643e-12
-6.94507e-11
-1.17567e-11
-6.75998e-11
-1.39806e-11
-6.54445e-11
-1.61237e-11
-6.30021e-11
-1.81788e-11
-6.0286e-11
-2.01368e-11
-5.73085e-11
-2.19803e-11
-5.41053e-11
-2.36881e-11
-5.06862e-11
-2.52876e-11
-4.70792e-11
-2.67591e-11
-4.33059e-11
-2.81078e-11
-3.93804e-11
-2.93273e-11
-3.53262e-11
-3.0408e-11
-3.11534e-11
-3.13558e-11
-2.68817e-11
-3.21761e-11
-2.25218e-11
-3.28764e-11
-1.80872e-11
-3.34661e-11
-1.35891e-11
-3.39367e-11
-9.03e-12
-3.43023e-11
-4.40466e-12
-3.48029e-11
-3.39525e-11
-5.64774e-13
-7.98229e-12
-1.81893e-14
-3.03133e-12
7.99137e-13
-7.13899e-13
1.58384e-12
8.63071e-14
2.22364e-12
3.05086e-13
2.70188e-12
5.29652e-13
3.04411e-12
8.19401e-13
3.27305e-12
1.23205e-12
3.3631e-12
1.7585e-12
3.33861e-12
2.41406e-12
3.19125e-12
3.19432e-12
2.91678e-12
4.10105e-12
2.50391e-12
5.12533e-12
1.93342e-12
6.27462e-12
1.19904e-12
7.51998e-12
2.9095e-13
8.87079e-12
-8.02577e-13
1.03175e-11
-2.10305e-12
1.18508e-11
-3.62516e-12
1.34571e-11
-5.37121e-12
1.51227e-11
-7.35833e-12
1.68363e-11
-9.5937e-12
1.85744e-11
-1.20816e-11
2.03142e-11
-1.4842e-11
2.20351e-11
-1.78584e-11
2.36855e-11
-2.11251e-11
2.52431e-11
-2.46324e-11
2.66725e-11
-2.83637e-11
2.79329e-11
-3.22957e-11
2.89824e-11
-3.63956e-11
2.97752e-11
-4.06249e-11
3.02693e-11
-4.49252e-11
3.04254e-11
-4.92571e-11
3.01969e-11
-5.35439e-11
2.95537e-11
-5.77168e-11
2.84791e-11
-6.16967e-11
2.69529e-11
-6.54037e-11
2.49706e-11
-6.87536e-11
2.25499e-11
-7.16559e-11
1.97e-11
-7.40392e-11
1.64913e-11
-7.58356e-11
1.29777e-11
-7.69904e-11
9.24681e-12
-7.74723e-11
5.40036e-12
-7.72658e-11
1.56028e-12
-7.63961e-11
-2.14068e-12
-7.48724e-11
-5.62352e-12
-7.27815e-11
-8.69709e-12
-7.0221e-11
-1.12654e-11
-6.72964e-11
-1.32435e-11
-6.41448e-11
-1.45517e-11
-6.09079e-11
-1.51478e-11
-5.77252e-11
-1.50231e-11
-5.47388e-11
-1.42044e-11
-5.20729e-11
-1.27485e-11
-4.98341e-11
-1.07405e-11
-4.8106e-11
-8.28846e-12
-4.69432e-11
-5.51802e-12
-4.63737e-11
-2.55613e-12
-4.64159e-11
4.97337e-13
-4.70036e-11
3.40152e-12
-4.81205e-11
6.16925e-12
-4.96908e-11
8.64056e-12
-5.16459e-11
1.07567e-11
-5.39023e-11
1.24579e-11
-5.63662e-11
1.3683e-11
-5.89486e-11
1.44325e-11
-6.15648e-11
1.46978e-11
-6.4128e-11
1.44808e-11
-6.65737e-11
1.38299e-11
-6.88392e-11
1.27684e-11
-7.08513e-11
1.12886e-11
-7.25928e-11
9.52461e-12
-7.39732e-11
7.44366e-12
-7.50101e-11
5.1649e-12
-7.5675e-11
2.70498e-12
-7.59596e-11
1.06908e-13
-7.58562e-11
-2.56651e-12
-7.53675e-11
-5.28174e-12
-7.45184e-11
-8.00288e-12
-7.32698e-11
-1.07351e-11
-7.1669e-11
-1.33571e-11
-6.97458e-11
-1.59032e-11
-6.74981e-11
-1.83721e-11
-6.49512e-11
-2.07258e-11
-6.21252e-11
-2.29629e-11
-5.90347e-11
-2.50693e-11
-5.57075e-11
-2.70149e-11
-5.21606e-11
-2.88351e-11
-4.84199e-11
-3.04977e-11
-4.45155e-11
-3.20143e-11
-4.04597e-11
-3.33782e-11
-3.62763e-11
-3.45942e-11
-3.19779e-11
-3.56546e-11
-2.75825e-11
-3.65714e-11
-2.31056e-11
-3.7355e-11
-1.85592e-11
-3.80124e-11
-1.39511e-11
-3.85442e-11
-9.27921e-12
-3.8973e-11
-4.53421e-12
-3.95481e-11
-3.84861e-11
-3.81235e-13
-7.60125e-12
1.70691e-13
-3.58369e-12
9.66057e-13
-1.50943e-12
1.75513e-12
-7.02595e-13
2.43334e-12
-3.72699e-13
3.00379e-12
-4.02736e-14
3.45615e-12
3.67529e-13
3.79661e-12
8.92132e-13
4.01701e-12
1.53885e-12
4.11909e-12
2.31303e-12
4.09437e-12
3.22026e-12
3.93454e-12
4.26198e-12
3.6236e-12
5.43691e-12
3.17475e-12
6.72355e-12
2.54797e-12
8.1464e-12
1.73383e-12
9.68441e-12
7.23402e-13
1.13275e-11
-5.01522e-13
1.30756e-11
-1.95913e-12
1.49149e-11
-3.66679e-12
1.68309e-11
-5.63401e-12
1.8804e-11
-7.87346e-12
2.08143e-11
-1.03957e-11
2.28367e-11
-1.32017e-11
2.4841e-11
-1.63059e-11
2.67897e-11
-1.97124e-11
2.86496e-11
-2.33901e-11
3.03503e-11
-2.73331e-11
3.1876e-11
-3.15172e-11
3.31664e-11
-3.59131e-11
3.41707e-11
-4.04793e-11
3.48348e-11
-4.51618e-11
3.51068e-11
-4.99038e-11
3.49377e-11
-5.46226e-11
3.42716e-11
-5.92422e-11
3.30981e-11
-6.36752e-11
3.13855e-11
-6.78161e-11
2.91111e-11
-7.1558e-11
2.62913e-11
-7.48383e-11
2.29801e-11
-7.75196e-11
1.91728e-11
-7.95265e-11
1.49847e-11
-8.07941e-11
1.05143e-11
-8.12669e-11
5.87322e-12
-8.0921e-11
1.21499e-12
-7.97859e-11
-3.27452e-12
-7.78952e-11
-7.51328e-12
-7.53122e-11
-1.12803e-11
-7.21613e-11
-1.44171e-11
-6.85774e-11
-1.68283e-11
-6.47244e-11
-1.84055e-11
-6.07766e-11
-1.90965e-11
-5.69105e-11
-1.88899e-11
-5.32968e-11
-1.78178e-11
-5.00892e-11
-1.59549e-11
-4.74177e-11
-1.34113e-11
-4.53784e-11
-1.03279e-11
-4.40339e-11
-6.86253e-12
-4.34094e-11
-3.18015e-12
-4.3515e-11
6.03398e-13
-4.42798e-11
4.16693e-12
-4.56854e-11
7.57564e-12
-4.76091e-11
1.05653e-11
-4.99857e-11
1.31338e-11
-5.26907e-11
1.51629e-11
-5.56269e-11
1.66193e-11
-5.86886e-11
1.74942e-11
-6.17718e-11
1.77804e-11
-6.47846e-11
1.74927e-11
-6.76374e-11
1.66822e-11
-7.02729e-11
1.54031e-11
-7.26263e-11
1.36408e-11
-7.46232e-11
1.15211e-11
-7.62421e-11
9.06329e-12
-7.7464e-11
6.38615e-12
-7.82618e-11
3.50328e-12
-7.86338e-11
4.79359e-13
-7.85739e-11
-2.62759e-12
-7.80923e-11
-5.76377e-12
-7.71941e-11
-8.89981e-12
-7.5914e-11
-1.20153e-11
-7.42378e-11
-1.50336e-11
-7.21972e-11
-1.79436e-11
-6.98366e-11
-2.07331e-11
-6.71643e-11
-2.33959e-11
-6.42076e-11
-2.59202e-11
-6.09828e-11
-2.8294e-11
-5.75146e-11
-3.04844e-11
-5.38226e-11
-3.25284e-11
-4.9937e-11
-3.4382e-11
-4.58844e-11
-3.60662e-11
-4.16865e-11
-3.75765e-11
-3.73572e-11
-3.89225e-11
-3.29177e-11
-4.00966e-11
-2.83826e-11
-4.11064e-11
-2.37691e-11
-4.19671e-11
-1.90944e-11
-4.26877e-11
-1.43631e-11
-4.32746e-11
-9.57298e-12
-4.37631e-11
-4.70372e-12
-4.44184e-11
-4.31896e-11
-2.19997e-13
-7.38158e-12
3.8329e-13
-4.18723e-12
1.17935e-12
-2.30547e-12
2.01278e-12
-1.53579e-12
2.76689e-12
-1.12654e-12
3.42807e-12
-7.01214e-13
3.98785e-12
-1.91953e-13
4.44517e-12
4.35422e-13
4.79165e-12
1.19349e-12
5.02626e-12
2.08002e-12
5.13041e-12
3.11784e-12
5.10143e-12
4.2923e-12
4.93126e-12
5.60767e-12
4.59363e-12
7.06099e-12
4.08356e-12
8.65585e-12
3.3835e-12
1.03838e-11
2.47065e-12
1.224e-11
1.3282e-12
1.4218e-11
-4.98343e-14
1.62932e-11
-1.69806e-12
1.84795e-11
-3.63288e-12
2.07393e-11
-5.86617e-12
2.3048e-11
-8.41413e-12
2.53851e-11
-1.12842e-11
2.77115e-11
-1.4484e-11
2.99899e-11
-1.80088e-11
3.21748e-11
-2.18796e-11
3.42216e-11
-2.60563e-11
3.60529e-11
-3.05286e-11
3.76386e-11
-3.52646e-11
3.8906e-11
-4.02213e-11
3.97903e-11
-4.53431e-11
4.02272e-11
-5.05605e-11
4.01539e-11
-5.58037e-11
3.95139e-11
-6.0967e-11
3.82608e-11
-6.59448e-11
3.63627e-11
-7.06238e-11
3.37895e-11
-7.48861e-11
3.05532e-11
-7.85905e-11
2.66845e-11
-8.16386e-11
2.2221e-11
-8.39441e-11
1.72901e-11
-8.53754e-11
1.19453e-11
-8.58597e-11
6.35767e-12
-8.53839e-11
7.39936e-13
-8.39371e-11
-4.72061e-12
-8.15696e-11
-9.88075e-12
-7.83979e-11
-1.44525e-11
-7.4521e-11
-1.82948e-11
-7.01222e-11
-2.12278e-11
-6.53991e-11
-2.31294e-11
-6.05688e-11
-2.39275e-11
-5.58539e-11
-2.36047e-11
-5.14651e-11
-2.22057e-11
-4.75918e-11
-1.98269e-11
-4.43896e-11
-1.66128e-11
-4.19761e-11
-1.27413e-11
-4.0425e-11
-8.41289e-12
-3.97593e-11
-3.84449e-12
-3.99411e-11
7.86215e-13
-4.096e-11
5.18656e-12
-4.27126e-11
9.32904e-12
-4.50826e-11
1.29358e-11
-4.79978e-11
1.60492e-11
-5.12503e-11
1.84159e-11
-5.47639e-11
2.01335e-11
-5.84056e-11
2.11364e-11
-6.20502e-11
2.14253e-11
-6.55922e-11
2.10342e-11
-6.89352e-11
2.00239e-11
-7.19793e-11
1.84461e-11
-7.47128e-11
1.63735e-11
-7.7037e-11
1.38447e-11
-7.89214e-11
1.09486e-11
-8.03325e-11
7.7976e-12
-8.12737e-11
4.4435e-12
-8.17333e-11
9.37496e-13
-8.17086e-11
-2.65165e-12
-8.12199e-11
-6.25311e-12
-8.02834e-11
-9.83686e-12
-7.89308e-11
-1.33672e-11
-7.71598e-11
-1.68038e-11
-7.4999e-11
-2.01035e-11
-7.24921e-11
-2.32402e-11
-6.96599e-11
-2.62267e-11
-6.65423e-11
-2.90368e-11
-6.3157e-11
-3.1678e-11
-5.95232e-11
-3.41193e-11
-5.5667e-11
-3.63819e-11
-5.16219e-11
-3.84291e-11
-4.7408e-11
-4.0277e-11
-4.30477e-11
-4.19362e-11
-3.85617e-11
-4.34084e-11
-3.39628e-11
-4.46924e-11
-2.92736e-11
-4.57971e-11
-2.45095e-11
-4.67314e-11
-1.96889e-11
-4.75087e-11
-1.48188e-11
-4.81434e-11
-9.90166e-12
-4.86808e-11
-4.90027e-12
-4.94186e-11
-4.80892e-11
-7.28984e-14
-7.30895e-12
5.92678e-13
-4.85263e-12
1.47276e-12
-3.18524e-12
2.35532e-12
-2.4181e-12
3.19043e-12
-1.96158e-12
3.95341e-12
-1.46425e-12
4.6299e-12
-8.68325e-13
5.21182e-12
-1.45905e-13
5.69122e-12
7.15309e-13
6.05754e-12
1.71532e-12
6.30535e-12
2.87153e-12
6.41854e-12
4.17998e-12
6.38462e-12
5.64164e-12
6.18712e-12
7.25798e-12
5.81177e-12
9.03064e-12
5.23818e-12
1.09571e-11
4.44579e-12
1.30325e-11
3.41142e-12
1.52527e-11
2.10309e-12
1.76019e-11
5.27356e-13
2.00557e-11
-1.34826e-12
2.26155e-11
-3.55739e-12
2.52577e-11
-6.11179e-12
2.794e-11
-9.0304e-12
3.06306e-11
-1.23241e-11
3.3284e-11
-1.60009e-11
3.58522e-11
-2.00541e-11
3.82753e-11
-2.44914e-11
4.04902e-11
-2.92837e-11
4.24304e-11
-3.44025e-11
4.40239e-11
-3.9806e-11
4.51927e-11
-4.54361e-11
4.58562e-11
-5.12202e-11
4.59371e-11
-5.70669e-11
4.536e-11
-6.28702e-11
4.40636e-11
-6.85085e-11
4.20005e-11
-7.38432e-11
3.91238e-11
-7.87324e-11
3.5442e-11
-8.30134e-11
3.09654e-11
-8.65432e-11
2.57507e-11
-8.92006e-11
1.99473e-11
-9.08563e-11
1.36007e-11
-9.13974e-11
6.89863e-12
-9.07823e-11
1.251e-13
-8.89867e-11
-6.516e-12
-8.60898e-11
-1.27779e-11
-8.21731e-11
-1.83695e-11
-7.74055e-11
-2.30627e-11
-7.19921e-11
-2.66415e-11
-6.61853e-11
-2.89367e-11
-6.02572e-11
-2.98554e-11
-5.44843e-11
-2.93765e-11
-4.91325e-11
-2.75562e-11
-4.44368e-11
-2.4522e-11
-4.05894e-11
-2.04598e-11
-3.77236e-11
-1.56063e-11
-3.59293e-11
-1.0206e-11
-3.52216e-11
-4.55087e-12
-3.55733e-11
1.13884e-12
-3.69164e-11
6.53035e-12
-3.91006e-11
1.1514e-11
-4.20861e-11
1.59215e-11
-4.55709e-11
1.95343e-11
-4.95423e-11
2.23884e-11
-5.37729e-11