/*--------------------------------*- C++ -*----------------------------------*\
| =========                 |                                                 |
| \\      /  F ield         | OpenFOAM: The Open Source CFD Toolbox           |
|  \\    /   O peration     | Version:  2312                                  |
|   \\  /    A nd           | Website:  www.openfoam.com                      |
|    \\/     M anipulation  |                                                 |
\*---------------------------------------------------------------------------*/
FoamFile
{
    version     2.0;
    format      ascii;
    arch        "LSB;label=32;scalar=64";
    class       volScalarField;
    location    "0.15";
    object      p_rgh;
}
// * * * * * * * * * * * * * * * * * * * * * * * * * * * * * * * * * * * * * //

dimensions      [1 -1 -2 0 0 0 0];

internalField   nonuniform List<scalar> 
10000
(
0
-1.35506e-05
-4.85086e-06
-1.38126e-05
-3.79972e-05
-7.11319e-05
-0.000114187
-0.000163863
-0.000219985
-0.000282045
-0.000349421
-0.000421432
-0.000496987
-0.000574219
-0.000651211
-0.000728257
-0.000804148
-0.000877231
-0.000945937
-0.00100857
-0.0010635
-0.00110902
-0.00114336
-0.00116459
-0.00117074
-0.00115979
-0.0011298
-0.00107887
-0.00100513
-0.000906757
-0.000782034
-0.00062937
-0.000447351
-0.000234759
9.38264e-06
0.000285771
0.000594761
0.00093634
0.00131013
0.00171544
0.00215124
0.00261614
0.00310846
0.00362608
0.00416657
0.00472726
0.00530527
0.00589746
0.00650063
0.00711166
0.00772716
0.00834346
0.00895783
0.00956744
0.0101696
0.0107619
0.0113421
0.0119081
0.0124583
0.0129912
0.0135056
0.0140003
0.0144749
0.014929
0.0153622
0.0157743
0.0161652
0.0165351
0.0168842
0.0172129
0.0175217
0.0178112
0.0180819
0.0183343
0.0185691
0.018787
0.0189888
0.0191749
0.0193463
0.0195035
0.0196473
0.0197783
0.0198976
0.0200055
0.0201025
0.0201895
0.0202671
0.0203358
0.0203965
0.0204495
0.0204957
0.020535
0.0205685
0.0205958
0.0206176
0.020634
0.0206454
0.0206521
0.0206544
0.020653
1.37169e-06
2.43125e-05
1.78774e-05
2.63335e-06
-2.47715e-05
-5.89585e-05
-0.000105948
-0.000156495
-0.000213693
-0.000276625
-0.000345102
-0.000417916
-0.000493324
-0.000570858
-0.000650198
-0.000729149
-0.000806453
-0.000880867
-0.000950866
-0.00101493
-0.00107141
-0.00111857
-0.00115459
-0.00117749
-0.0011853
-0.00117602
-0.00114771
-0.00109846
-0.00102634
-0.000929527
-0.000806252
-0.000654911
-0.000474071
-0.000262477
-1.90832e-05
0.000256825
0.000565609
0.000907247
0.00128141
0.00168744
0.00212434
0.00259071
0.00308481
0.00360457
0.00414753
0.00471089
0.00529176
0.00588695
0.00649317
0.00710707
0.00772535
0.00834496
0.00896246
0.00957491
0.0101797
0.0107744
0.0113567
0.0119246
0.0124765
0.0130108
0.0135261
0.0140217
0.0144969
0.0149514
0.0153848
0.0157969
0.0161876
0.0165571
0.0169057
0.0172338
0.017542
0.0178307
0.0181006
0.018352
0.0185859
0.0188028
0.0190035
0.0191886
0.0193589
0.019515
0.0196578
0.0197878
0.0199059
0.0200128
0.0201089
0.0201951
0.0202719
0.0203399
0.0203999
0.0204522
0.0204979
0.0205367
0.0205694
0.0205963
0.0206175
0.0206338
0.0206448
0.0206511
0.0206529
0.0206514
4.30314e-05
4.93633e-05
3.61403e-05
1.78545e-05
-1.15819e-05
-4.8582e-05
-9.30549e-05
-0.00014531
-0.00020416
-0.00026909
-0.00033904
-0.000412755
-0.000489958
-0.000569691
-0.000650895
-0.000732095
-0.000811945
-0.000889069
-0.000961976
-0.0010291
-0.0010888
-0.00113929
-0.0011787
-0.00120507
-0.00121639
-0.00121067
-0.00118593
-0.0011402
-0.00107153
-0.000977992
-0.000857776
-0.000709206
-0.00053077
-0.000321145
-7.92517e-05
0.000195682
0.000504074
0.000845984
0.00122113
0.00162888
0.00206825
0.00253782
0.00303584
0.00356019
0.00410835
0.00467736
0.0052642
0.00586564
0.00647832
0.00709877
0.00772351
0.00834917
0.00897249
0.00959047
0.0102004
0.0107997
0.0113864
0.0119576
0.0125127
0.0130493
0.0135667
0.0140639
0.0145403
0.0149954
0.0154291
0.0158411
0.0162314
0.0166004
0.0169482
0.0172753
0.0175823
0.0178696
0.0181378
0.0183877
0.0186198
0.0188349
0.0190337
0.0192169
0.0193852
0.0195394
0.0196802
0.0198085
0.0199247
0.0200298
0.0201243
0.020209
0.0202845
0.0203511
0.0204097
0.020461
0.0205053
0.020543
0.0205746
0.0206006
0.0206212
0.0206368
0.0206474
0.0206534
0.0206549
0.0206536
8.38887e-05
8.16319e-05
6.60831e-05
4.60273e-05
1.47035e-05
-2.45631e-05
-7.16236e-05
-0.000125595
-0.000186729
-0.000254097
-0.000326586
-0.000403368
-0.000483848
-0.000566975
-0.000651569
-0.000736415
-0.000820228
-0.000901616
-0.000979068
-0.00105098
-0.00111566
-0.0011713
-0.001216
-0.00124775
-0.00126454
-0.00126436
-0.00124516
-0.00120492
-0.00114159
-0.00105314
-0.000937652
-0.000793358
-0.000618643
-0.00041209
-0.000172527
0.000100915
0.000408764
0.000751187
0.00112795
0.00153846
0.00198174
0.0024564
0.0029606
0.00349212
0.00404828
0.00462605
0.00522211
0.00583321
0.0064558
0.00708619
0.00772067
0.00835569
0.00898795
0.00961437
0.010232
0.0108383
0.0114308
0.012008
0.012567
0.0131073
0.0136274
0.0141268
0.0146048
0.0150609
0.0154949
0.0159069
0.0162968
0.0166649
0.0170115
0.0173371
0.0176422
0.0179275
0.0181936
0.0184412
0.018671
0.0188834
0.0190796
0.0192602
0.0194257
0.0195773
0.0197154
0.019841
0.0199547
0.0200574
0.0201498
0.0202323
0.0203056
0.0203705
0.020427
0.0204766
0.0205193
0.0205555
0.0205857
0.0206105
0.02063
0.0206447
0.0206546
0.0206602
0.0206613
0.0206599
0.000122469
0.000120135
0.00010185
7.93042e-05
4.63423e-05
5.32586e-06
-4.38157e-05
-0.000100419
-0.00016412
-0.000234268
-0.000310006
-0.000390463
-0.000475015
-0.000562782
-0.000652045
-0.000741907
-0.000831131
-0.000918318
-0.00100193
-0.00108033
-0.00115178
-0.00121442
-0.0012663
-0.0013054
-0.00132968
-0.00133707
-0.00132547
-0.00129275
-0.00123672
-0.00115524
-0.00104626
-0.000907876
-0.000738338
-0.000536077
-0.000299765
-2.83831e-05
0.000278727
0.000621849
0.00100085
0.00141516
0.00186383
0.00234548
0.00285816
0.00339943
0.00396648
0.00455608
0.0051648
0.00578908
0.00642511
0.00706892
0.00771658
0.00836435
0.00900871
0.00964638
0.0102743
0.0108898
0.0114905
0.0120743
0.0126395
0.0131846
0.0137086
0.0142109
0.0146909
0.0151483
0.0155829
0.0159948
0.016384
0.0167508
0.0170957
0.0174193
0.0177221
0.0180047
0.0182679
0.0185124
0.0187389
0.0189482
0.019141
0.0193182
0.0194803
0.0196285
0.0197633
0.0198855
0.0199961
0.0200956
0.0201848
0.0202647
0.0203351
0.0203974
0.0204516
0.020499
0.0205395
0.0205738
0.0206025
0.0206256
0.0206439
0.0206574
0.0206665
0.0206712
0.020672
0.0206705
0.000170644
0.000167198
0.000145257
0.000120874
8.63934e-05
4.33094e-05
-8.37251e-06
-6.79617e-05
-0.000134999
-0.000208841
-0.000288708
-0.000373694
-0.000462768
-0.000556993
-0.000652002
-0.000748231
-0.000844296
-0.000938801
-0.00103019
-0.00111679
-0.0011968
-0.00126833
-0.00132937
-0.00137786
-0.00141173
-0.00142884
-0.001427
-0.00140392
-0.00135728
-0.00128479
-0.00118425
-0.00105356
-0.000890773
-0.00069412
-0.000462072
-0.000193424
0.000112648
0.000456575
0.000838361
0.00125752
0.00171309
0.00220363
0.00272709
0.00328085
0.00386188
0.00446672
0.00509173
0.00573297
0.00638628
0.00704735
0.00771196
0.00837606
0.00903582
0.00968769
0.0103285
0.0109556
0.0115665
0.0121591
0.0127315
0.0132826
0.0138114
0.0143172
0.0147997
0.0152585
0.0156936
0.0161051
0.0164932
0.0168585
0.0172013
0.0175224
0.0178221
0.0181014
0.018361
0.0186017
0.0188242
0.0190294
0.0192182
0.0193911
0.0195491
0.019693
0.0198237
0.0199419
0.0200484
0.0201441
0.0202296
0.0203057
0.0203729
0.0204321
0.0204834
0.0205279
0.0205658
0.0205978
0.0206244
0.0206456
0.0206624
0.0206745
0.0206827
0.0206867
0.0206869
0.0206851
0.000226555
0.000221249
0.000198267
0.000171362
0.000134745
8.91176e-05
3.45445e-05
-2.84555e-05
-9.93715e-05
-0.000177591
-0.000262378
-0.000352877
-0.000448213
-0.000547689
-0.000650855
-0.000754921
-0.00085923
-0.00096256
-0.00106335
-0.00115989
-0.00125032
-0.00133267
-0.00140491
-0.00146494
-0.00151063
-0.00153974
-0.00154994
-0.00153877
-0.00150376
-0.00144245
-0.00135242
-0.00123136
-0.00107704
-0.000887469
-0.000660879
-0.000395822
-9.12386e-05
0.000253499
0.000638548
0.00106352
0.00152745
0.00202884
0.00256554
0.00313473
0.00373306
0.00435692
0.0050022
0.00566455
0.00633935
0.00702188
0.00770747
0.00839167
0.0090703
0.00973959
0.0103963
0.0110375
0.0116607
0.0122637
0.0128449
0.013403
0.0139373
0.0144471
0.014932
0.0153922
0.0158277
0.0162387
0.0166255
0.0169888
0.017329
0.0176468
0.0179429
0.0182182
0.0184734
0.0187094
0.0189273
0.0191275
0.0193113
0.0194793
0.0196322
0.0197711
0.0198967
0.0200101
0.0201118
0.0202028
0.0202839
0.0203556
0.0204188
0.020474
0.020522
0.0205631
0.020598
0.0206273
0.0206514
0.0206705
0.0206854
0.0206961
0.0207028
0.0207059
0.0207054
0.0207033
0.000290835
0.00028386
0.00026038
0.000231183
0.000192097
0.000143558
8.56285e-05
1.87378e-05
-5.66474e-05
-0.000139934
-0.000230405
-0.000327262
-0.000429651
-0.000536673
-0.000647186
-0.000761526
-0.000875308
-0.000988989
-0.00110085
-0.00120911
-0.00131183
-0.00140702
-0.0014926
-0.00156644
-0.00162629
-0.0016698
-0.00169445
-0.00169763
-0.00167667
-0.00162892
-0.00155168
-0.00144236
-0.00129847
-0.00111772
-0.000898039
-0.000637655
-0.000335193
1.02085e-05
0.000398868
0.000830534
0.00130432
0.00181868
0.0023713
0.00295916
0.00357859
0.00422554
0.00489552
0.0055836
0.00628457
0.00699315
0.00770413
0.00841257
0.00911394
0.0098042
0.0104798
0.0111377
0.0117753
0.0123904
0.0129815
0.0135475
0.0140877
0.0146016
0.0150893
0.0155507
0.0159863
0.0163964
0.0167815
0.0171422
0.0174791
0.017793
0.0180848
0.0183552
0.0186053
0.0188359
0.0190482
0.0192427
0.0194205
0.0195825
0.0197295
0.0198625
0.0199823
0.0200898
0.020186
0.0202715
0.0203474
0.020414
0.0204727
0.0205234
0.0205671
0.0206044
0.0206357
0.0206621
0.0206833
0.0207002
0.0207127
0.0207215
0.0207267
0.0207286
0.0207273
0.0207246
0.000364418
0.000356445
0.000331148
0.000300534
0.000258953
0.000207227
0.000145524
7.42257e-05
-6.20482e-06
-9.52161e-05
-0.000192132
-0.000296198
-0.000406577
-0.000522367
-0.000642578
-0.000766283
-0.000891611
-0.00101736
-0.00114201
-0.0012638
-0.00138075
-0.00149087
-0.00159204
-0.00168204
-0.00175852
-0.00181893
-0.00186061
-0.00188077
-0.00187653
-0.00184493
-0.00178301
-0.00168788
-0.00155671
-0.00138685
-0.00117583
-0.000921456
-0.00062199
-0.000276289
0.000116195
0.000555419
0.00104063
0.00157021
0.00214169
0.00275178
0.00339647
0.00407121
0.00477088
0.00548985
0.00622218
0.00696192
0.00770323
0.00844058
0.00916893
0.00988387
0.0105816
0.0112587
0.0119127
0.0125415
0.0131436
0.013718
0.0142644
0.0147826
0.0152728
0.0157354
0.0161706
0.0165792
0.0169618
0.0173192
0.0176521
0.0179613
0.0182479
0.0185128
0.0187569
0.0189814
0.019187
0.0193749
0.0195458
0.0197007
0.0198408
0.0199669
0.02008
0.0201809
0.0202708
0.02035
0.0204199
0.0204809
0.020534
0.0205798
0.0206187
0.0206518
0.020679
0.0207019
0.0207198
0.0207338
0.0207441
0.0207506
0.0207541
0.0207545
0.0207522
0.0207487
0.000447878
0.000438519
0.000413912
0.000380477
0.000336058
0.00028082
0.000214934
0.000138755
5.27052e-05
-4.26956e-05
-0.000146819
-0.000258942
-0.000378238
-0.00050381
-0.000634685
-0.000769771
-0.000907655
-0.00104694
-0.00118605
-0.00132323
-0.00145638
-0.00158357
-0.00170265
-0.00181126
-0.00190691
-0.00198692
-0.00204843
-0.00208844
-0.0021038
-0.00209126
-0.00204756
-0.00196945
-0.00185371
-0.00169719
-0.0014969
-0.0012502
-0.000954928
-0.000609552
-0.000213166
0.000234457
0.000732698
0.00127991
0.00187344
0.00250972
0.00318438
0.00389217
0.00462713
0.00538278
0.00615236
0.00692908
0.00770628
0.00847767
0.00923757
0.00998112
0.0107042
0.0114032
0.0120756
0.0127194
0.0133333
0.0139168
0.0144695
0.014992
0.0154844
0.0159474
0.0163816
0.016788
0.0171673
0.0175205
0.0178485
0.0181523
0.0184327
0.0186911
0.0189283
0.0191456
0.0193439
0.019524
0.0196869
0.0198338
0.0199659
0.0200842
0.0201898
0.0202832
0.0203657
0.020438
0.0205012
0.0205559
0.020603
0.020643
0.0206766
0.0207045
0.0207274
0.0207459
0.0207605
0.0207711
0.0207786
0.0207829
0.0207843
0.0207832
0.0207796
0.0207755
0.00054256
0.000532371
0.000507412
0.000471638
0.000424105
0.000365053
0.000294621
0.000213109
0.000120891
1.84447e-05
-9.36235e-05
-0.000214614
-0.000343732
-0.000480112
-0.000622807
-0.000770724
-0.000922559
-0.00107685
-0.00123192
-0.00138658
-0.00153787
-0.00168433
-0.00182367
-0.00195343
-0.00207097
-0.00217344
-0.0022578
-0.00232077
-0.00235894
-0.00236876
-0.00234661
-0.00228881
-0.00219161
-0.00205128
-0.00186424
-0.00162732
-0.00133783
-0.000993709
-0.000593561
-0.000136825
0.000376042
0.000943418
0.00156253
0.0022295
0.00293942
0.00368615
0.00446279
0.00526184
0.00607548
0.00689579
0.00771507
0.00852615
0.00932265
0.0100991
0.0108509
0.0115745
0.0122672
0.0129272
0.0135538
0.0141465
0.0147057
0.0152319
0.0157258
0.0161884
0.0166208
0.0170239
0.017399
0.0177471
0.0180692
0.0183664
0.0186397
0.0188905
0.0191198
0.0193287
0.0195184
0.0196898
0.0198437
0.019982
0.020105
0.0202144
0.0203112
0.0203965
0.0204709
0.0205355
0.0205911
0.0206386
0.0206789
0.0207124
0.0207401
0.0207624
0.0207803
0.0207942
0.0208046
0.0208119
0.0208161
0.0208178
0.0208171
0.0208143
0.0208093
0.0208044
0.000649383
0.000638622
0.000612695
0.000574535
0.0005238
0.000460685
0.000385353
0.000298112
0.000199207
8.90944e-05
-3.16046e-05
-0.000162234
-0.00030206
-0.000450266
-0.000605935
-0.000767989
-0.000935165
-0.00110603
-0.001279
-0.0014524
-0.00162411
-0.00179215
-0.00195422
-0.00210779
-0.00225008
-0.00237808
-0.00248851
-0.00257786
-0.00264243
-0.00267832
-0.0026815
-0.00264774
-0.00257267
-0.0024519
-0.00228121
-0.00205673
-0.0017751
-0.00143359
-0.00103018
-0.000563861
-3.48071e-05
0.000555493
0.00120414
0.00190683
0.002658
0.00345049
0.00427624
0.00512649
0.00599203
0.00686351
0.00773194
0.00858912
0.0094278
0.0102418
0.011026
0.0117768
0.0124917
0.0131691
0.0138087
0.0144106
0.0149756
0.0155048
0.0159992
0.0164603
0.0168897
0.0172885
0.0176582
0.0179999
0.0183149
0.0186044
0.0188695
0.0191115
0.0193317
0.0195312
0.0197112
0.0198728
0.0200168
0.0201448
0.020258
0.0203576
0.0204447
0.0205207
0.020586
0.0206418
0.020689
0.0207284
0.0207612
0.0207877
0.0208088
0.0208253
0.0208377
0.0208465
0.0208522
0.0208556
0.0208564
0.020855
0.0208518
0.0208472
0.0208408
0.0208352
0.000769391
0.000757833
0.000730566
0.000690002
0.000635925
0.000568529
0.000487969
0.000394495
0.000288571
0.00017022
4.02687e-05
-0.000100729
-0.000252115
-0.000413125
-0.000582866
-0.000760283
-0.000944158
-0.00113311
-0.00132559
-0.00151989
-0.00171404
-0.00190595
-0.00209331
-0.00227345
-0.00244349
-0.00260025
-0.00274022
-0.00285968
-0.0029546
-0.00302072
-0.00305346
-0.00304799
-0.00299925
-0.00290211
-0.00275154
-0.00254286
-0.00227185
-0.00193488
-0.0015292
-0.0010531
-0.000506326
0.000109834
0.000792416
0.0015367
0.00233589
0.00318207
0.00406567
0.00497621
0.00590276
0.00683426
0.00776013
0.00867078
0.00955786
0.0104143
0.0112348
0.0120155
0.0127542
0.0134498
0.0141024
0.0147128
0.0152825
0.0158133
0.0163069
0.0167651
0.01719
0.017583
0.0179458
0.0182798
0.0185865
0.018867
0.0191226
0.0193547
0.0195646
0.0197535
0.0199227
0.0200729
0.0202061
0.020323
0.020425
0.0205136
0.0205898
0.0206552
0.0207105
0.0207566
0.0207947
0.0208253
0.0208496
0.0208685
0.0208824
0.0208921
0.0208983
0.0209018
0.0209026
0.0209014
0.0208985
0.020894
0.0208883
0.0208816
0.0208739
0.0208676
0.000903471
0.000890644
0.000861978
0.000818903
0.000761348
0.000689458
0.000603385
0.000503344
0.000389603
0.00026282
0.000123107
-2.89346e-05
-0.00019268
-0.000367404
-0.000552249
-0.000746211
-0.000948135
-0.0011567
-0.00137042
-0.0015876
-0.00180632
-0.00202448
-0.00223966
-0.00244931
-0.00265021
-0.00283911
-0.00301237
-0.003166
-0.00329565
-0.00339657
-0.00346365
-0.00349136
-0.0034739
-0.00340524
-0.00327944
-0.00309078
-0.00283396
-0.00250425
-0.00209782
-0.00161213
-0.00104624
-0.000401148
0.000320134
0.00111234
0.00196786
0.00287717
0.00382895
0.00481064
0.00580908
0.00681108
0.00780406
0.00877665
0.00971906
0.0106234
0.0114839
0.0122969
0.0130605
0.0137743
0.0144393
0.0150571
0.0156299
0.0161604
0.0166512
0.0171046
0.017523
0.0179084
0.0182627
0.0185875
0.0188844
0.0191546
0.0193995
0.0196204
0.0198187
0.0199955
0.0201527
0.0202907
0.0204114
0.020516
0.0206057
0.0206821
0.0207465
0.0208003
0.0208444
0.0208799
0.0209075
0.0209286
0.0209436
0.0209538
0.0209597
0.0209623
0.0209619
0.0209593
0.020955
0.0209491
0.0209422
0.0209343
0.0209259
0.0209169
0.0209077
0.0209007
0.00105221
0.00103811
0.00100786
0.000962182
0.000901003
0.000824426
0.000732614
0.000625776
0.000504173
0.000368199
0.000218143
5.44118e-05
-0.000122425
-0.000311704
-0.000512633
-0.000724289
-0.000945591
-0.00117529
-0.00141194
-0.00165392
-0.00189937
-0.00214618
-0.00239191
-0.00263383
-0.00286889
-0.00309358
-0.00330414
-0.00349635
-0.00366546
-0.0038063
-0.00391311
-0.00397966
-0.00399925
-0.00396488
-0.0038695
-0.00370615
-0.00346815
-0.00314931
-0.00274447
-0.00224992
-0.00166384
-0.000986629
-0.000221263
0.000626451
0.00154775
0.00253138
0.0035638
0.00462982
0.00571335
0.0067984
0.00786983
0.00891405
0.00991955
0.0108775
0.0117818
0.0126288
0.0134177
0.0141491
0.0148249
0.015448
0.0160212
0.0165487
0.0170341
0.0174802
0.0178898
0.0182656
0.0186096
0.0189235
0.019209
0.0194676
0.0197005
0.0199089
0.0200942
0.0202578
0.0204011
0.0205257
0.0206327
0.0207235
0.0207998
0.0208628
0.0209143
0.0209553
0.020987
0.0210108
0.0210272
0.0210375
0.0210426
0.0210433
0.0210407
0.0210353
0.0210278
0.021019
0.0210089
0.0209979
0.0209866
0.0209751
0.0209636
0.0209524
0.0209417
0.0209339
0.00121632
0.00120118
0.00116923
0.00112083
0.00105587
0.00097446
0.000876732
0.000762868
0.000633064
0.000487566
0.000326664
0.000150668
-3.99181e-05
-0.000244529
-0.000462474
-0.000692917
-0.000934857
-0.00118712
-0.00144836
-0.00171702
-0.0019913
-0.00226912
-0.00254805
-0.00282534
-0.0030979
-0.00336223
-0.00361439
-0.00384989
-0.00406368
-0.00425007
-0.00440271
-0.00451455
-0.00457793
-0.00458476
-0.00452669
-0.00439522
-0.00418193
-0.00387885
-0.00347906
-0.0029773
-0.00237039
-0.00165786
-0.000842443
6.95116e-05
0.00106795
0.0021395
0.00326782
0.00443425
0.00561897
0.00680227
0.00796568
0.00909279
0.01017
0.0111874
0.012139
0.0130207
0.0138346
0.0145817
0.0152658
0.0158908
0.0164596
0.0169811
0.0174579
0.0178937
0.018292
0.0186558
0.0189874
0.0192886
0.0195611
0.0198065
0.0200259
0.0202205
0.0203915
0.0205405
0.0206688
0.0207782
0.0208701
0.0209461
0.0210074
0.0210558
0.0210928
0.0211198
0.0211381
0.0211487
0.021153
0.0211517
0.021146
0.0211367
0.0211246
0.0211107
0.0210954
0.0210796
0.0210633
0.0210471
0.0210311
0.0210157
0.0210011
0.0209874
0.0209751
0.0209664
0.00139681
0.00138078
0.00134707
0.00129583
0.00122701
0.00114066
0.00103688
0.000915795
0.000777508
0.000622169
0.000449985
0.000261291
5.63848e-05
-0.000164268
-0.000400077
-0.0006503
-0.000914031
-0.00119021
-0.00147759
-0.00177473
-0.0020799
-0.00239106
-0.00270587
-0.00302164
-0.00333531
-0.0036433
-0.00394154
-0.0042254
-0.00448946
-0.00472763
-0.00493289
-0.00509735
-0.00521237
-0.00526864
-0.00525626
-0.00516484
-0.00498386
-0.00470313
-0.00431344
-0.00380731
-0.00317972
-0.0024288
-0.00155677
-0.000570356
0.000518987
0.00169521
0.00293824
0.00422497
0.00553073
0.00683098
0.0081027
0.00932591
0.0104845
0.0115672
0.0125696
0.0134837
0.0143213
0.015081
0.015769
0.0163928
0.0169477
0.0174606
0.0179252
0.0183472
0.018731
0.0190801
0.019397
0.0196835
0.0199412
0.0201717
0.0203762
0.0205556
0.0207109
0.0208438
0.0209559
0.0210485
0.0211238
0.0211832
0.0212281
0.0212603
0.0212815
0.0212932
0.0212968
0.0212933
0.0212842
0.0212704
0.021253
0.0212327
0.0212107
0.0211876
0.021164
0.0211407
0.0211179
0.021096
0.021075
0.0210554
0.0210374
0.0210212
0.0210072
0.0209975
0.00159468
0.00157785
0.00154234
0.00148825
0.00141552
0.00132417
0.00121426
0.0010858
0.000938826
0.000773416
0.000589704
0.000387895
0.000168172
-6.91342e-05
-0.000323534
-0.000594398
-0.000880952
-0.00118227
-0.00149727
-0.00182459
-0.00216262
-0.00250944
-0.00286285
-0.00322027
-0.00357868
-0.0039345
-0.00428355
-0.00462103
-0.00494138
-0.00523804
-0.00550344
-0.0057289
-0.00590471
-0.00602019
-0.00606366
-0.00602252
-0.00588367
-0.00563412
-0.00526165
-0.00475579
-0.00410882
-0.00331687
-0.00238105
-0.0013082
-0.000111323
0.00119017
0.00257144
0.00400352
0.0054553
0.00689569
0.00829575
0.00963092
0.0108821
0.012034
0.0130858
0.014037
0.0148919
0.0156568
0.0163406
0.0169519
0.0174982
0.0179921
0.0184384
0.0188422
0.019208
0.0195396
0.0198394
0.0201092
0.0203503
0.0205642
0.0207519
0.0209147
0.0210529
0.0211681
0.0212622
0.0213367
0.0213936
0.0214345
0.0214615
0.0214761
0.0214799
0.0214749
0.0214622
0.0214437
0.0214201
0.0213928
0.0213628
0.0213309
0.0212981
0.0212652
0.0212329
0.0212015
0.0211716
0.0211435
0.0211173
0.0210934
0.0210719
0.0210531
0.0210372
0.0210266
0.00181098
0.00179338
0.00175608
0.00169915
0.00162252
0.00152619
0.00141009
0.00127418
0.00111843
0.000942827
0.000747384
0.000532146
0.000297281
4.28556e-05
-0.000230716
-0.00052295
-0.000833238
-0.00116083
-0.00150477
-0.00186387
-0.00223668
-0.00262145
-0.00301614
-0.00341833
-0.00382509
-0.00423289
-0.00463756
-0.00503422
-0.00541717
-0.0057796
-0.00611346
-0.00640938
-0.00665655
-0.00684279
-0.00695442
-0.00697628
-0.00689217
-0.00668553
-0.00634027
-0.00584185
-0.00517876
-0.00434399
-0.00333674
-0.00216358
-0.00083915
0.000613161
0.00216241
0.00377182
0.00540142
0.00701124
0.00856447
0.0100308
0.0113897
0.0126075
0.0137152
0.014696
0.0155605
0.0163208
0.0169905
0.0175817
0.0181065
0.018576
0.0189984
0.0193795
0.0197238
0.0200347
0.0203149
0.0205658
0.0207885
0.0209844
0.021154
0.0212981
0.0214175
0.0215138
0.0215882
0.0216427
0.0216795
0.0217003
0.0217073
0.0217025
0.0216874
0.0216643
0.0216342
0.0215991
0.02156
0.0215182
0.0214745
0.0214301
0.0213859
0.0213426
0.0213007
0.0212609
0.0212236
0.0211889
0.0211573
0.0211288
0.0211036
0.0210821
0.0210643
0.0210526
0.00204676
0.00202835
0.00198933
0.00192962
0.00184916
0.00174787
0.00162563
0.00148232
0.00131783
0.00113202
0.000924774
0.000695989
0.000445631
0.000173849
-0.00011932
-0.000433532
-0.000768344
-0.00112318
-0.00149727
-0.00188963
-0.00229902
-0.00272391
-0.00316246
-0.00361241
-0.00407101
-0.00453486
-0.00499995
-0.00546146
-0.00591366
-0.00634967
-0.00676111
-0.00713802
-0.00746863
-0.00773916
-0.00793375
-0.00803435
-0.00802107
-0.00787293
-0.0075688
-0.00708867
-0.00641566
-0.00553815
-0.00445208
-0.0031629
-0.00168656
-5.14516e-05
0.0017037
0.00353167
0.00538028
0.00719712
0.00893436
0.010553
0.0120246
0.0133335
0.0144853
0.0154842
0.0163448
0.0170848
0.0177268
0.0182852
0.0187761
0.0192127
0.0196044
0.0199581
0.0202772
0.0205648
0.0208232
0.0210534
0.021256
0.0214319
0.0215818
0.021706
0.0218049
0.0218801
0.0219332
0.021966
0.0219807
0.0219795
0.0219647
0.0219386
0.0219032
0.0218601
0.0218114
0.0217584
0.0217027
0.0216451
0.021587
0.0215293
0.0214729
0.0214186
0.0213668
0.021318
0.0212728
0.0212314
0.0211939
0.0211606
0.0211317
0.0211073
0.0210876
0.0210748
0.002303
0.00228381
0.00224313
0.00218073
0.00209655
0.00199042
0.00186219
0.00171165
0.00153855
0.00134265
0.00112366
0.000881325
0.000615472
0.000326079
1.30721e-05
-0.000323613
-0.000683569
-0.00106645
-0.00147173
-0.00189866
-0.00234625
-0.00281323
-0.00329799
-0.0037985
-0.00431223
-0.00483608
-0.00536629
-0.00589834
-0.00642667
-0.00694437
-0.00744327
-0.00791269
-0.00834027
-0.00871074
-0.00900592
-0.00920462
-0.0092827
-0.00921374
-0.00897007
-0.00852441
-0.00785239
-0.0069355
-0.00576427
-0.0043417
-0.00268402
-0.000825964
0.00118385
0.00328415
0.00540585
0.00747892
0.00944021
0.0112396
0.0128413
0.0142363
0.0154265
0.0164277
0.0172646
0.0179659
0.0185569
0.0190644
0.0195071
0.0199
0.0202535
0.0205753
0.020866
0.0211284
0.0213637
0.0215717
0.0217529
0.0219075
0.0220359
0.0221384
0.0222155
0.0222679
0.0222975
0.0223064
0.0222969
0.0222717
0.0222333
0.022184
0.0221262
0.0220617
0.0219927
0.0219205
0.0218469
0.0217726
0.0216992
0.0216275
0.0215583
0.0214922
0.0214299
0.0213718
0.0213183
0.0212697
0.0212263
0.0211881
0.0211554
0.021128
0.0211061
0.0210922
0.00258067
0.00256075
0.00251849
0.00245354
0.00236579
0.00225505
0.00212109
0.00196359
0.00178215
0.00157637
0.00134582
0.00109009
0.000808813
0.000501756
0.000169012
-0.000190552
-0.000576042
-0.000987536
-0.00142481
-0.0018874
-0.00237458
-0.00288536
-0.00341843
-0.00397202
-0.00454393
-0.00513146
-0.00573132
-0.00633947
-0.00695073
-0.00755857
-0.00815477
-0.00872922
-0.00926865
-0.00975682
-0.0101734
-0.0104939
-0.0106895
-0.010727
-0.0105706
-0.0101832
-0.0095302
-0.00858263
-0.00732233
-0.00574653
-0.00387376
-0.00174255
0.000585104
0.00302856
0.00549501
0.00788952
0.0101268
0.0121405
0.0138905
0.0153663
0.0165784
0.017556
0.0183383
0.0189677
0.0194828
0.0199169
0.0202944
0.0206321
0.0209403
0.0212255
0.0214862
0.021723
0.0219349
0.0221205
0.0222793
0.0224115
0.0225171
0.0225963
0.0226493
0.022677
0.0226812
0.0226641
0.0226283
0.0225767
0.0225123
0.0224378
0.0223555
0.0222679
0.0221769
0.0220842
0.0219913
0.0218995
0.0218098
0.0217232
0.0216405
0.0215623
0.021489
0.0214212
0.0213592
0.0213032
0.0212536
0.0212103
0.0211735
0.0211431
0.0211191
0.021104
0.00288067
0.00286009
0.00281636
0.00274904
0.00265799
0.00254297
0.00240364
0.00223954
0.00205012
0.00183482
0.00159305
0.00132424
0.0010278
0.000703204
0.000349865
-3.16746e-05
-0.00044267
-0.000883083
-0.00135291
-0.00185198
-0.00237986
-0.00293587
-0.003519
-0.00412785
-0.00476065
-0.00541521
-0.00608887
-0.00677821
-0.00747878
-0.00818476
-0.00888863
-0.00958057
-0.0102479
-0.0108736
-0.0114359
-0.0119069
-0.0122527
-0.0124325
-0.0124002
-0.0121059
-0.0115004
-0.0105396
-0.00919194
-0.00744567
-0.00531582
-0.00284777
-0.000119897
0.0027609
0.00566841
0.00847177
0.0110536
0.0133234
0.0152363
0.0167827
0.017988
0.0189015
0.0195845
0.0201
0.0205021
0.0208343
0.0211266
0.0213971
0.0216543
0.0219005
0.0221322
0.0223452
0.0225354
0.0226995
0.022836
0.0229445
0.0230256
0.0230795
0.0231064
0.0231073
0.0230838
0.0230384
0.0229732
0.0228929
0.0228003
0.0226983
0.0225897
0.0224771
0.0223627
0.0222482
0.0221349
0.0220243
0.0219175
0.0218153
0.0217183
0.0216273
0.0215428
0.0214649
0.0213941
0.0213306
0.0212746
0.0212261
0.0211851
0.0211515
0.0211253
0.021109
0.00320385
0.00318268
0.00313765
0.00306821
0.0029742
0.0028553
0.00271103
0.00254079
0.00234389
0.0021196
0.00186716
0.00158581
0.00127476
0.000933294
0.000560713
0.000156527
-0.000280014
-0.00074947
-0.00125217
-0.00178825
-0.00235762
-0.00295993
-0.00359452
-0.0042604
-0.00495633
-0.00568074
-0.00643168
-0.00720659
-0.008002
-0.00881332
-0.00963436
-0.0104565
-0.0112681
-0.0120529
-0.0127884
-0.0134441
-0.0139808
-0.0143495
-0.0144912
-0.0143397
-0.0138253
-0.0128823
-0.0114586
-0.00952626
-0.00709262
-0.00420844
-0.000972537
0.0024723
0.00595196
0.00928288
0.0123007
0.0148753
0.0169644
0.0185588
0.0197091
0.0204969
0.0210164
0.0213599
0.0216014
0.0217973
0.021983
0.0221755
0.0223786
0.0225888
0.022796
0.0229908
0.0231639
0.0233094
0.0234244
0.0235087
0.0235635
0.0235896
0.0235875
0.0235586
0.0235042
0.0234268
0.0233307
0.0232192
0.023096
0.0229644
0.0228276
0.0226883
0.0225486
0.0224107
0.0222759
0.0221456
0.0220208
0.0219021
0.0217905
0.0216862
0.0215899
0.0215019
0.0214221
0.0213509
0.0212884
0.0212346
0.0211893
0.0211524
0.021124
0.0211065
0.00355094
0.0035293
0.00348317
0.00341194
0.00331538
0.00319306
0.00304438
0.0028686
0.00266487
0.00243232
0.00216999
0.0018769
0.00155206
0.00119448
0.000803165
0.000377135
-8.46165e-05
-0.000582929
-0.00111851
-0.00169183
-0.00230313
-0.00295242
-0.00363942
-0.00436363
-0.00512435
-0.00592067
-0.00675146
-0.00761517
-0.00850967
-0.00943206
-0.0103783
-0.0113421
-0.0123142
-0.0132803
-0.014219
-0.0150989
-0.0158764
-0.0164933
-0.0168761
-0.0169371
-0.0165797
-0.0157069
-0.0142346
-0.0121082
-0.0093196
-0.00592015
-0.00203412
0.00214702
0.00638002
0.0104014
0.0139729
0.0169224
0.0191885
0.0207858
0.0218041
0.0223743
0.0226376
0.0227333
0.022754
0.0227734
0.022831
0.0229387
0.0230911
0.0232751
0.0234687
0.0236552
0.0238197
0.023952
0.0240477
0.0241073
0.0241336
0.0241285
0.0240938
0.0240316
0.0239434
0.0238314
0.0237004
0.0235545
0.0233978
0.0232341
0.0230667
0.0228987
0.0227325
0.0225699
0.0224125
0.0222615
0.022118
0.0219823
0.0218554
0.0217377
0.0216293
0.0215307
0.0214418
0.0213628
0.0212937
0.0212345
0.0211849
0.0211448
0.0211141
0.0210954
0.0039226
0.00390061
0.00385363
0.00378098
0.00368234
0.00355717
0.00340473
0.00322418
0.00301452
0.00277468
0.00250348
0.00219972
0.00186215
0.00148947
0.00108033
0.000633325
0.000147102
-0.000379575
-0.000947672
-0.00155806
-0.00221133
-0.00290785
-0.00364779
-0.00443109
-0.00525759
-0.00612702
-0.00703904
-0.00799325
-0.00898916
-0.0100261
-0.011103
-0.0122174
-0.0133639
-0.0145325
-0.0157061
-0.0168542
-0.0179315
-0.0188712
-0.0195835
-0.0199545
-0.0198514
-0.0191328
-0.0176666
-0.0153538
-0.0121566
-0.00811957
-0.00339525
0.00175967
0.00700142
0.0119443
0.0162347
0.019632
0.0220623
0.02358
0.0243434
0.0245615
0.0244534
0.0241895
0.0239141
0.0237132
0.0236252
0.0236501
0.0237648
0.0239432
0.0241415
0.0243364
0.0245049
0.0246319
0.0247118
0.0247462
0.0247405
0.0246997
0.0246275
0.0245271
0.0244012
0.0242498
0.0240801
0.0238966
0.0237034
0.0235051
0.0233052
0.0231068
0.0229121
0.0227234
0.0225423
0.0223697
0.0222068
0.0220539
0.0219115
0.02178
0.0216595
0.0215502
0.021452
0.0213651
0.0212895
0.0212248
0.0211709
0.0211276
0.0210947
0.0210749
0.00431938
0.00429716
0.00424962
0.00417597
0.0040758
0.00394846
0.00379312
0.00360878
0.00339429
0.00314835
0.00286956
0.00255646
0.00220749
0.001821
0.00139525
0.000928453
0.000418836
-0.000135218
-0.000735116
-0.00138198
-0.00207687
-0.00282051
-0.00361347
-0.00445609
-0.00534864
-0.00629138
-0.00728466
-0.00832918
-0.00942625
-0.0105779
-0.011787
-0.0130563
-0.0143868
-0.0157761
-0.0172139
-0.0186773
-0.0201217
-0.0214756
-0.0226322
-0.023447
-0.0237398
-0.023307
-0.0219444
-0.0194822
-0.0158268
-0.011005
-0.00519244
0.00126875
0.00788747
0.014088
0.0193276
0.0232577
0.0258021
0.0270941
0.0274053
0.0270627
0.0264048
0.02566
0.0250074
0.0245465
0.0243071
0.0242666
0.0243728
0.0245782
0.0248102
0.0250374
0.0252273
0.0253593
0.0254274
0.0254354
0.0253927
0.025309
0.0251917
0.0250461
0.0248787
0.02468
0.0244675