/*--------------------------------*- C++ -*----------------------------------*\
| =========                 |                                                 |
| \\      /  F ield         | OpenFOAM: The Open Source CFD Toolbox           |
|  \\    /   O peration     | Version:  2312                                  |
|   \\  /    A nd           | Website:  www.openfoam.com                      |
|    \\/     M anipulation  |                                                 |
\*---------------------------------------------------------------------------*/
FoamFile
{
    version     2.0;
    format      ascii;
    arch        "LSB;label=32;scalar=64";
    class       surfaceScalarField;
    location    "0.15";
    object      phi;
}
// * * * * * * * * * * * * * * * * * * * * * * * * * * * * * * * * * * * * * //

dimensions      [0 3 -1 0 0 0 0];

oriented        oriented;

internalField   nonuniform List<scalar> 
19800
(
1.39144e-13
-1.69399e-13
-8.02014e-12
8.15891e-12
-1.07512e-11
2.73039e-12
-1.09916e-11
2.39791e-13
-1.00169e-11
-9.74828e-13
-8.74079e-12
-1.27569e-12
-7.58714e-12
-1.15275e-12
-6.62997e-12
-9.56232e-13
-5.89466e-12
-7.34788e-13
-5.35083e-12
-5.44001e-13
-4.99473e-12
-3.56834e-13
-4.78204e-12
-2.13529e-13
-4.70097e-12
-8.15133e-14
-4.7524e-12
5.17024e-14
-4.91964e-12
1.68133e-13
-5.22745e-12
3.08869e-13
-5.66593e-12
4.3924e-13
-6.25065e-12
5.84982e-13
-6.98333e-12
7.32751e-13
-7.88301e-12
9.0007e-13
-8.95951e-12
1.07746e-12
-1.02218e-11
1.26353e-12
-1.16738e-11
1.453e-12
-1.33158e-11
1.64207e-12
-1.51399e-11
1.82337e-12
-1.7138e-11
1.99726e-12
-1.92963e-11
2.15772e-12
-2.15964e-11
2.30007e-12
-2.40139e-11
2.41777e-12
-2.65231e-11
2.50963e-12
-2.90942e-11
2.57149e-12
-3.16948e-11
2.60093e-12
-3.42945e-11
2.59972e-12
-3.68654e-11
2.57068e-12
-3.9374e-11
2.50801e-12
-4.17873e-11
2.4127e-12
-4.40737e-11
2.28635e-12
-4.62153e-11
2.14196e-12
-4.81816e-11
1.96726e-12
-4.99696e-11
1.78919e-12
-5.15538e-11
1.58537e-12
-5.29147e-11
1.36167e-12
-5.4073e-11
1.15894e-12
-5.5023e-11
9.50213e-13
-5.57677e-11
7.44332e-13
-5.63335e-11
5.65205e-13
-5.67284e-11
3.95037e-13
-5.69871e-11
2.58881e-13
-5.713e-11
1.42888e-13
-5.71991e-11
6.92114e-14
-5.72159e-11
1.74463e-14
-5.72227e-11
7.64385e-15
-5.72484e-11
2.65205e-14
-5.73219e-11
7.37384e-14
-5.74705e-11
1.49097e-13
-5.77169e-11
2.47097e-13
-5.80691e-11
3.5256e-13
-5.85379e-11
4.69066e-13
-5.91267e-11
5.89544e-13
-5.9828e-11
7.03112e-13
-6.06444e-11
8.18544e-13
-6.15533e-11
9.10075e-13
-6.25372e-11
9.84129e-13
-6.35804e-11
1.04305e-12
-6.46444e-11
1.0642e-12
-6.57066e-11
1.06254e-12
-6.67323e-11
1.02691e-12
-6.76969e-11
9.66643e-13
-6.85643e-11
8.67975e-13
-6.93069e-11
7.4227e-13
-6.98957e-11
5.87198e-13
-7.03055e-11
4.0772e-13
-7.05097e-11
2.04172e-13
-7.04941e-11
-1.50784e-14
-7.02459e-11
-2.48636e-13
-6.97612e-11
-4.85516e-13
-6.90221e-11
-7.39735e-13
-6.80318e-11
-9.92192e-13
-6.6794e-11
-1.2391e-12
-6.53132e-11
-1.48143e-12
-6.3595e-11
-1.71655e-12
-6.16538e-11
-1.94381e-12
-5.94977e-11
-2.1555e-12
-5.7146e-11
-2.35047e-12
-5.46166e-11
-2.52873e-12
-5.19208e-11
-2.69529e-12
-4.90602e-11
-2.85904e-12
-4.60321e-11
-3.02853e-12
-4.28231e-11
-3.20658e-12
-3.94349e-11
-3.38934e-12
-3.58645e-11
-3.56946e-12
-3.21352e-11
-3.73303e-12
-2.82642e-11
-3.87108e-12
-2.42925e-11
-3.97265e-12
-2.02625e-11
-4.03008e-12
-1.62078e-11
-4.05513e-12
-1.21472e-11
-4.06151e-12
-8.07753e-12
-4.07038e-12
-3.9671e-12
-4.10796e-12
-3.96661e-12
8.47876e-12
-8.64853e-12
8.65433e-12
7.98222e-12
5.42626e-12
5.95767e-12
2.91576e-12
2.75019e-12
1.33562e-12
6.06087e-13
3.90141e-13
-3.28842e-13
-1.4802e-13
-6.13257e-13
-5.19337e-13
-5.84275e-13
-8.23362e-13
-4.31088e-13
-1.13916e-12
-2.29207e-13
-1.48802e-12
-8.98047e-15
-1.944e-12
2.42122e-13
-2.50507e-12
4.80188e-13
-3.19518e-12
7.43143e-13
-4.04124e-12
1.01563e-12
-5.02862e-12
1.29726e-12
-6.18013e-12
1.59126e-12
-7.49814e-12
1.90346e-12
-9.00061e-12
2.23624e-12
-1.06877e-11
2.58897e-12
-1.25629e-11
2.95462e-12
-1.46284e-11
3.33032e-12
-1.68807e-11
3.70539e-12
-1.93177e-11
4.07794e-12
-2.19306e-11
4.43496e-12
-2.47057e-11
4.77151e-12
-2.7625e-11
5.07705e-12
-3.06633e-11
5.33902e-12
-3.38052e-11
5.56029e-12
-3.70211e-11
5.72608e-12
-4.02783e-11
5.82899e-12
-4.35449e-11
5.86736e-12
-4.67807e-11
5.83499e-12
-4.99386e-11
5.72775e-12
-5.29921e-11
5.56088e-12
-5.58884e-11
5.30921e-12
-5.85932e-11
4.99228e-12
-6.10724e-11
4.6229e-12
-6.32871e-11
4.18357e-12
-6.52159e-11
3.71963e-12
-6.68212e-11
3.19222e-12
-6.81072e-11
2.64851e-12
-6.90505e-11
2.10205e-12
-6.96589e-11
1.55823e-12
-6.99507e-11
1.03602e-12
-6.99289e-11
5.42867e-13
-6.96442e-11
1.104e-13
-6.91162e-11
-2.68551e-13
-6.83982e-11
-5.74528e-13
-6.75304e-11
-7.97869e-13
-6.65725e-11
-9.39189e-13
-6.55719e-11
-9.9156e-13
-6.45825e-11
-9.61338e-13
-6.36547e-11
-8.53275e-13
-6.28388e-11
-6.66577e-13
-6.21744e-11
-4.1654e-13
-6.16753e-11
-1.45577e-13
-6.13668e-11
1.61883e-13
-6.12483e-11
4.73391e-13
-6.13417e-11
7.9952e-13
-6.1631e-11
1.11067e-12
-6.20974e-11
1.37747e-12
-6.27293e-11
1.61595e-12
-6.35069e-11
1.82096e-12
-6.43781e-11
1.93717e-12
-6.53127e-11
1.9988e-12
-6.62712e-11
1.98649e-12
-6.72192e-11
1.91646e-12
-6.8119e-11
1.76688e-12
-6.89331e-11
1.55335e-12
-6.9636e-11
1.28853e-12
-7.01771e-11
9.48351e-13
-7.05357e-11
5.62827e-13
-7.06914e-11
1.40424e-13
-7.06312e-11
-3.10328e-13
-7.03175e-11
-8.01474e-13
-6.97494e-11
-1.30946e-12
-6.89204e-11
-1.82246e-12
-6.78294e-11
-2.32965e-12
-6.6486e-11
-2.8267e-12
-6.48939e-11
-3.30773e-12
-6.30547e-11
-3.78335e-12
-6.09735e-11
-4.23661e-12
-5.86599e-11
-4.66234e-12
-5.6126e-11
-5.06176e-12
-5.33734e-11
-5.44551e-12
-5.04113e-11
-5.81894e-12
-4.72588e-11
-6.18308e-12
-4.39244e-11
-6.53924e-12
-4.04302e-11
-6.88784e-12
-3.67928e-11
-7.20512e-12
-3.30311e-11
-7.49638e-12
-2.91516e-11
-7.75072e-12
-2.51702e-11
-7.95333e-12
-2.11036e-11
-8.09886e-12
-1.69636e-11
-8.19401e-12
-1.27693e-11
-8.25766e-12
-8.53441e-12
-8.30907e-12
-4.20688e-12
-8.43754e-12
-8.17776e-12
3.0514e-12
-1.17006e-11
6.62743e-12
4.40533e-12
6.80102e-12
5.78373e-12
5.82515e-12
3.72641e-12
4.63911e-12
1.79308e-12
3.60905e-12
7.02385e-13
2.76129e-12
2.35353e-13
2.10985e-12
6.74228e-14
1.55551e-12
1.22988e-13
1.00767e-12
3.18227e-13
4.10384e-13
5.88118e-13
-2.33317e-13
8.86027e-13
-9.91195e-13
1.23858e-12
-1.87228e-12
1.62483e-12
-2.88443e-12
2.02831e-12
-4.05848e-12
2.47181e-12
-5.40298e-12
2.93645e-12
-6.92453e-12
3.42616e-12
-8.6273e-12
3.94071e-12
-1.05121e-11
4.47562e-12
-1.2584e-11
5.02799e-12
-1.48401e-11
5.58684e-12
-1.72772e-11
6.14183e-12
-1.98867e-11
6.6863e-12
-2.26602e-11
7.20765e-12
-2.55839e-11
7.69506e-12
-2.86422e-11
8.13578e-12
-3.18191e-11
8.51668e-12
-3.50855e-11
8.82715e-12
-3.84213e-11
9.06193e-12
-4.17911e-11
9.19856e-12
-4.51665e-11
9.24216e-12
-4.85064e-11
9.17436e-12
-5.17619e-11
8.98313e-12
-5.48998e-11
8.69921e-12
-5.78839e-11
8.29407e-12
-6.06513e-11
7.76061e-12
-6.31878e-11
7.16048e-12
-6.54266e-11
6.42337e-12
-6.73607e-11
5.65454e-12
-6.89636e-11
4.79614e-12
-7.01991e-11
3.88447e-12
-7.10673e-11
2.96956e-12
-7.15706e-11
2.06083e-12
-7.17212e-11
1.18676e-12
-7.15481e-11
3.70086e-13
-7.10642e-11
-3.73638e-13
-7.03217e-11
-1.01087e-12
-6.93686e-11
-1.527e-12
-6.82567e-11
-1.90847e-12
-6.70472e-11
-2.14691e-12
-6.57964e-11
-2.24112e-12
-6.45629e-11
-2.19413e-12
-6.34011e-11
-2.01494e-12
-6.23517e-11
-1.71681e-12
-6.14496e-11
-1.31913e-12
-6.07925e-11
-8.02016e-13
-6.03227e-11
-3.05731e-13
-6.00858e-11
2.39555e-13
-6.00497e-11
7.65949e-13
-6.02752e-11
1.33797e-12
-6.06838e-11
1.78701e-12
-6.12744e-11
2.20746e-12
-6.20056e-11
2.5527e-12
-6.2887e-11
2.81925e-12
-6.38237e-11
2.9367e-12
-6.4801e-11
2.96379e-12
-6.57736e-11
2.88967e-12
-6.67085e-11
2.70163e-12
-6.75657e-11
2.40952e-12
-6.83156e-11
2.03862e-12
-6.891e-11
1.54316e-12
-6.93388e-11
9.90209e-13
-6.95649e-11
3.66196e-13
-6.95655e-11
-3.09562e-13
-6.93419e-11
-1.02542e-12
-6.88635e-11
-1.78971e-12
-6.81319e-11
-2.5546e-12
-6.71397e-11
-3.32226e-12
-6.5886e-11
-4.08039e-12
-6.43762e-11
-4.81886e-12
-6.26036e-11
-5.55372e-12
-6.05762e-11
-6.26395e-12
-5.8298e-11
-6.93934e-12
-5.57816e-11
-7.57924e-12
-5.30364e-11
-8.19074e-12
-5.00749e-11
-8.77688e-12
-4.69261e-11
-9.33174e-12
-4.36065e-11
-9.8605e-12
-4.01394e-11
-1.03558e-11
-3.65351e-11
-1.08102e-11
-3.28038e-11
-1.12275e-11
-2.89654e-11
-1.15914e-11
-2.5027e-11
-1.18925e-11
-2.09988e-11
-1.21283e-11
-1.68913e-11
-1.23021e-11
-1.27159e-11
-1.24336e-11
-8.4942e-12
-1.25323e-11
-4.19897e-12
-1.27332e-11
-1.23773e-11
5.79021e-13
-1.22803e-11
3.42346e-12
1.56072e-12
4.74632e-12
4.46124e-12
4.92355e-12
3.55004e-12
4.5473e-12
2.17039e-12
4.01253e-12
1.23805e-12
3.47308e-12
7.7539e-13
2.92986e-12
6.11015e-13
2.38633e-12
6.66912e-13
1.83769e-12
8.67349e-13
1.24901e-12
1.17723e-12
5.7162e-13
1.5636e-12
-2.0543e-13
2.0155e-12
-1.10307e-12
2.52227e-12
-2.14557e-12
3.0709e-12
-3.34192e-12
3.66884e-12
-4.70612e-12
4.30196e-12
-6.24911e-12
4.9709e-12
-7.97699e-12
5.67042e-12
-9.89295e-12
6.39301e-12
-1.19986e-11
7.13423e-12
-1.42936e-11
7.88151e-12
-1.67752e-11
8.62254e-12
-1.94359e-11
9.34618e-12
-2.22667e-11
1.00381e-11
-2.52549e-11
1.06838e-11
-2.83864e-11
1.12682e-11
-3.16424e-11
1.17734e-11
-3.49999e-11
1.21847e-11
-3.84283e-11
1.24899e-11
-4.19027e-11
1.26724e-11
-4.53885e-11
1.27276e-11
-4.88405e-11
1.26265e-11
-5.22096e-11
1.23529e-11
-5.54609e-11
1.19513e-11
-5.85428e-11
1.13764e-11
-6.14154e-11
1.06332e-11
-6.40383e-11
9.78364e-12
-6.63564e-11
8.7419e-12
-6.83507e-11
7.64918e-12
-6.99775e-11
6.42294e-12
-7.12259e-11
5.13285e-12
-7.20846e-11
3.82792e-12
-7.25483e-11
2.52428e-12
-7.26341e-11
1.27316e-12
-7.23594e-11
9.6345e-14
-7.17659e-11
-9.67022e-13
-7.08943e-11
-1.88228e-12
-6.9797e-11
-2.6232e-12
-6.85336e-11
-3.17021e-12
-6.71694e-11
-3.50956e-12
-6.57687e-11
-3.64157e-12
-6.43957e-11
-3.56791e-12
-6.31093e-11
-3.30184e-12
-6.19629e-11
-2.86377e-12
-6.10022e-11
-2.28002e-12
-6.02235e-11
-1.57977e-12
-5.97114e-11
-8.15469e-13
-5.94494e-11
-1.93755e-14
-5.94599e-11
7.78483e-13
-5.96822e-11
1.56156e-12
-6.01579e-11
2.26374e-12
-6.08254e-11
2.87585e-12
-6.16501e-11
3.37722e-12
-6.2596e-11
3.7645e-12
-6.36261e-11
3.96842e-12
-6.47083e-11
4.04796e-12
-6.57765e-11
3.95921e-12
-6.68099e-11
3.73568e-12
-6.77631e-11
3.36273e-12
-6.85819e-11
2.85713e-12
-6.92614e-11
2.2228e-12
-6.97626e-11
1.4903e-12
-7.00332e-11
6.37096e-13
-7.00912e-11
-2.51759e-13
-6.98935e-11
-1.22366e-12
-6.94506e-11
-2.23474e-12
-6.87456e-11
-3.25827e-12
-6.77707e-11
-4.29919e-12
-6.65189e-11
-5.3306e-12
-6.49966e-11
-6.34151e-12
-6.32034e-11
-7.34747e-12
-6.11495e-11
-8.31808e-12
-5.88428e-11
-9.24699e-12
-5.62926e-11
-1.01266e-11
-5.35208e-11
-1.09611e-11
-5.05466e-11
-1.17524e-11
-4.73705e-11
-1.2504e-11
-4.40284e-11
-1.32076e-11
-4.05202e-11
-1.38629e-11
-3.68688e-11
-1.44617e-11
-3.30935e-11
-1.50013e-11
-2.92091e-11
-1.54771e-11
-2.52302e-11
-1.58715e-11
-2.11654e-11
-1.6197e-11
-1.70142e-11
-1.64543e-11
-1.28014e-11
-1.66491e-11
-8.53418e-12
-1.67972e-11
-4.21197e-12
-1.70599e-11
-1.65882e-11
-6.67586e-13
-1.1613e-11
1.25158e-12
-3.57563e-13
2.80656e-12
2.90741e-12
3.54276e-12
2.815e-12
3.72082e-12
1.99325e-12
3.60772e-12
1.35183e-12
3.35888e-12
1.02493e-12
3.0409e-12
9.3e-13
2.66171e-12
1.04742e-12
2.2191e-12
1.31114e-12
1.70017e-12
1.69667e-12
1.08739e-12
2.17601e-12
3.65846e-13
2.73614e-12
-4.96517e-13
3.38394e-12
-1.50703e-12
4.08154e-12
-2.66457e-12
4.82744e-12
-3.99905e-12
5.63813e-12
-5.51778e-12
6.49144e-12
-7.22781e-12
7.38188e-12
-9.13502e-12
8.30097e-12
-1.12403e-11
9.23948e-12
-1.35452e-11
1.01856e-11
-1.60481e-11
1.11246e-11
-1.87435e-11
1.20413e-11
-2.16233e-11
1.29184e-11
-2.46762e-11
1.37379e-11
-2.78868e-11
1.44799e-11
-3.12379e-11
1.5125e-11
-3.47062e-11
1.56528e-11
-3.82599e-11
1.6043e-11
-4.18771e-11
1.62893e-11
-4.55044e-11
1.63551e-11
-4.91074e-11
1.62301e-11
-5.26381e-11
1.58841e-11
-5.60403e-11
1.53536e-11
-5.92761e-11
1.46117e-11
-6.22988e-11
1.3655e-11
-6.50441e-11
1.25283e-11
-6.74844e-11
1.11821e-11
-6.95525e-11
9.71723e-12
-7.12406e-11
8.11053e-12
-7.25198e-11
6.41204e-12
-7.33663e-11
4.67511e-12
-7.37938e-11
2.95268e-12
-7.37969e-11
1.27738e-12
-7.34082e-11
-2.9129e-13
-7.26693e-11
-1.7054e-12
-7.16275e-11
-2.92367e-12
-7.03404e-11
-3.90949e-12
-6.8876e-11
-4.63378e-12
-6.73056e-11
-5.07963e-12
-6.5704e-11
-5.24371e-12
-6.41428e-11
-5.1299e-12
-6.26883e-11
-4.75643e-12
-6.13998e-11
-4.1521e-12
-6.0325e-11
-3.35453e-12
-5.94978e-11
-2.40628e-12
-5.89287e-11
-1.38318e-12
-5.86631e-11
-2.8303e-13
-5.86987e-11
8.15449e-13
-5.89993e-11
1.86301e-12
-5.95554e-11
2.82019e-12
-6.03349e-11
3.65575e-12
-6.12976e-11
4.34065e-12
-6.23715e-11
4.83971e-12
-6.35529e-11
5.15304e-12
-6.47821e-11
5.28041e-12
-6.60019e-11
5.18002e-12
-6.71755e-11
4.90876e-12
-6.8261e-11
4.44835e-12
-6.92002e-11
3.79596e-12
-6.99811e-11
3.00416e-12
-7.05597e-11
2.06871e-12
-7.09271e-11
1.00377e-12
-7.10449e-11
-1.35672e-13
-7.08952e-11
-1.37431e-12
-7.04641e-11
-2.66683e-12
-6.97734e-11
-3.94792e-12
-6.87946e-11
-5.27965e-12
-6.75269e-11
-6.59948e-12
-6.59705e-11
-7.89672e-12
-6.41476e-11
-9.17269e-12
-6.20582e-11
-1.04036e-11
-5.97159e-11
-1.15899e-11
-5.71317e-11
-1.27137e-11
-5.4318e-11
-1.37701e-11
-5.12934e-11
-1.47806e-11
-4.80664e-11
-1.57276e-11
-4.46665e-11
-1.6611e-11
-4.11e-11
-1.74297e-11
-3.73876e-11
-1.81735e-11
-3.35523e-11
-1.88377e-11
-2.9609e-11
-1.94193e-11
-2.55658e-11
-1.99148e-11
-2.14308e-11
-2.03304e-11
-1.72159e-11
-2.06677e-11
-1.29356e-11
-2.09303e-11
-8.60608e-12
-2.11299e-11
-4.22483e-12
-2.14428e-11
-2.08164e-11
-9.6389e-13
-1.06487e-11
3.28577e-13
-1.64825e-12
1.73236e-12
1.50513e-12
2.61326e-12
1.93512e-12
3.08197e-12
1.52515e-12
3.26437e-12
1.17004e-12
3.27411e-12
1.0163e-12
3.14356e-12
1.0623e-12
2.91904e-12
1.27383e-12
2.60028e-12
1.63113e-12
2.18195e-12
2.11505e-12
1.64842e-12
2.70854e-12
9.84188e-13
3.39915e-12
2.02485e-13
4.16505e-12
-7.40395e-13
5.02488e-12
-1.85873e-12
5.94712e-12
-3.14796e-12
6.92907e-12
-4.62972e-12
7.97476e-12
-6.31059e-12
9.06378e-12
-8.19773e-12
1.01884e-11
-1.02953e-11
1.13366e-11
-1.26066e-11
1.24962e-11
-1.51312e-11
1.36487e-11
-1.78643e-11
1.47748e-11
-2.08011e-11
1.58565e-11
-2.3932e-11
1.68702e-11
-2.72432e-11
1.7792e-11
-3.07153e-11
1.85973e-11
-3.43233e-11
1.92605e-11
-3.80385e-11
1.97578e-11
-4.18215e-11
2.00723e-11
-4.5632e-11
2.01659e-11
-4.94303e-11
2.00285e-11
-5.31674e-11
1.96208e-11
-5.67825e-11
1.89677e-11
-6.02229e-11
1.80508e-11
-6.3437e-11
1.68678e-11
-6.63591e-11
1.54493e-11
-6.89498e-11
1.37723e-11
-7.11448e-11
1.19122e-11
-7.29198e-11
9.88551e-12
-7.42437e-11
7.73642e-12
-7.50839e-11
5.51692e-12
-7.54535e-11
3.32411e-12
-7.53509e-11
1.17595e-12
-7.48122e-11
-8.29062e-13
-7.38813e-11
-2.63591e-12
-7.26084e-11
-4.1965e-12
-7.10643e-11
-5.45367e-12
-6.93265e-11
-6.37206e-12
-6.74776e-11
-6.92883e-12
-6.5602e-11
-7.11878e-12
-6.3784e-11
-6.94725e-12
-6.21002e-11
-6.43994e-12
-6.06186e-11
-5.63421e-12
-5.93929e-11
-4.58094e-12
-5.84626e-11
-3.33664e-12
-5.78685e-11
-1.97694e-12
-5.75902e-11
-5.60448e-13
-5.76656e-11
8.91507e-13
-5.80528e-11
2.2511e-12
-5.87275e-11
3.49556e-12
-5.9659e-11
4.58829e-12
-6.07909e-11
5.47559e-12
-6.20611e-11
6.11365e-12
-6.34366e-11
6.53134e-12
-6.48714e-11
6.71609e-12
-6.62918e-11
6.60087e-12
-6.76438e-11
6.26063e-12
-6.8904e-11
5.70929e-12
-6.99992e-11
4.8911e-12
-7.09125e-11
3.91674e-12
-7.15978e-11
2.75344e-12
-7.20685e-11
1.47241e-12
-7.22629e-11
5.79783e-14
-7.21488e-11
-1.48959e-12
-7.17822e-11
-3.0332e-12
-7.10822e-11
-4.64977e-12
-7.00991e-11
-6.26478e-12
-6.88134e-11
-7.88645e-12
-6.72349e-11
-9.47392e-12
-6.53771e-11
-1.10304e-11
-6.32475e-11
-1.25351e-11
-6.08529e-11
-1.39824e-11
-5.82087e-11
-1.53605e-11
-5.53279e-11
-1.66505e-11
-5.22326e-11
-1.78764e-11
-4.89378e-11
-1.90191e-11
-4.54638e-11
-2.00855e-11
-4.18257e-11
-2.10686e-11
-3.80407e-11
-2.19592e-11
-3.41311e-11
-2.27508e-11
-3.01069e-11
-2.34419e-11
-2.59837e-11
-2.40396e-11
-2.17685e-11
-2.45458e-11
-1.74739e-11
-2.49642e-11
-1.31122e-11
-2.52907e-11
-8.70653e-12
-2.55378e-11
-4.25099e-12
-2.58989e-11
-2.50653e-11
-8.56988e-13
-9.79054e-12
5.53416e-14
-2.55867e-12
1.23906e-12
3.22533e-13
2.14669e-12
1.02793e-12
2.75668e-12
9.15382e-13
3.12234e-12
8.05044e-13
3.29803e-12
8.4208e-13
3.3373e-12
1.02501e-12
3.26244e-12
1.35043e-12
3.06747e-12
1.82688e-12
2.75953e-12
2.42261e-12
2.32668e-12
3.14038e-12
1.7606e-12
3.96441e-12
1.03881e-12
4.8868e-12
1.70856e-13
5.89371e-12
-8.80543e-13
7.00002e-12
-2.12102e-12
8.17125e-12
-3.54838e-12
9.4036e-12
-5.19159e-12
1.07079e-11
-7.05273e-12
1.20497e-11
-9.13993e-12
1.34233e-11
-1.14566e-11
1.48123e-11
-1.40056e-11
1.61977e-11
-1.67853e-11
1.75553e-11
-1.97911e-11
1.88636e-11
-2.3015e-11
2.00952e-11
-2.64437e-11
2.12211e-11
-3.00583e-11
2.22117e-11
-3.38343e-11
2.30362e-11
-3.77405e-11
2.36637e-11
-4.17336e-11
2.40651e-11
-4.57774e-11
2.42093e-11
-4.98175e-11
2.4068e-11
-5.38151e-11
2.36173e-11
-5.76964e-11
2.28475e-11
-6.13988e-11
2.17517e-11
-6.48623e-11
2.033e-11
-6.80108e-11
1.85968e-11
-7.08008e-11
1.6562e-11
-7.31609e-11
1.42728e-11
-7.50436e-11
1.17689e-11
-7.64247e-11
9.11826e-12
-7.72763e-11
6.37e-12
-7.75761e-11
3.62584e-12
-7.73436e-11
9.44595e-13
-7.66171e-11
-1.55503e-12
-7.54357e-11
-3.81735e-12
-7.38645e-11
-5.76829e-12
-7.19851e-11
-7.33367e-12
-6.98894e-11
-8.46813e-12
-6.76758e-11
-9.14194e-12
-6.54417e-11
-9.35129e-12
-6.32891e-11
-9.09876e-12
-6.1308e-11
-8.42156e-12
-5.95766e-11
-7.36754e-12
-5.81576e-11
-6.00162e-12
-5.70969e-11
-4.39783e-12
-5.64344e-11
-2.63971e-12
-5.61882e-11
-8.06456e-13
-5.6312e-11
1.01646e-12
-5.68111e-11
2.75227e-12
-5.76505e-11
4.33753e-12
-5.87661e-11
5.70562e-12
-6.01142e-11
6.826e-12
-6.16478e-11
7.64977e-12
-6.32854e-11
8.16991e-12
-6.49564e-11
8.38622e-12
-6.66283e-11
8.27379e-12
-6.82282e-11
7.8625e-12
-6.96839e-11
7.16555e-12
-7.09856e-11
6.19279e-12
-7.20644e-11
4.99459e-12
-7.29067e-11
3.59531e-12
-7.34725e-11
2.0347e-12
-7.37388e-11
3.24335e-13
-7.3722e-11
-1.50854e-12
-7.33735e-11
-3.38347e-12
-7.27151e-11
-5.30772e-12
-7.17079e-11
-7.27275e-12
-7.0404e-11
-9.1899e-12
-6.87983e-11
-1.10833e-11
-6.68929e-11
-1.29339e-11
-6.47059e-11
-1.47243e-11
-6.22464e-11
-1.64424e-11
-5.95242e-11
-1.80804e-11
-5.65556e-11
-1.96183e-11
-5.33719e-11
-2.10582e-11
-4.99895e-11
-2.2403e-11
-4.64235e-11
-2.36499e-11
-4.26955e-11
-2.47979e-11
-3.88203e-11
-2.58346e-11
-3.48171e-11
-2.67552e-11
-3.06993e-11
-2.75612e-11
-2.64828e-11
-2.82588e-11
-2.21769e-11
-2.88513e-11
-1.77928e-11
-2.93475e-11
-1.33451e-11
-2.97381e-11
-8.84571e-12
-3.00356e-11
-4.29649e-12
-3.04507e-11
-2.93612e-11
-6.54923e-13
-9.1343e-12
7.56561e-14
-3.28816e-12
1.07705e-12
-6.78664e-13
1.98443e-12
1.20295e-13
2.6753e-12
2.24445e-13
3.16063e-12
3.20341e-13
3.49163e-12
5.12392e-13
3.66293e-12
8.55231e-13
3.71992e-12
1.29455e-12
3.65445e-12
1.89273e-12
3.46205e-12
2.61484e-12
3.13545e-12
3.4667e-12
2.66701e-12
4.43294e-12
2.04182e-12
5.51265e-12
1.24519e-12
6.6916e-12
2.83672e-13
7.96327e-12
-8.83187e-13
9.34001e-12
-2.26545e-12
1.07875e-11
-3.85714e-12
1.23004e-11
-5.68514e-12
1.38776e-11
-7.75516e-12
1.54928e-11
-1.00757e-11
1.71324e-11
-1.26541e-11
1.87763e-11
-1.54853e-11
2.03873e-11
-1.85697e-11
2.19486e-11
-2.18998e-11
2.34256e-11
-2.54641e-11
2.47853e-11
-2.92444e-11
2.59918e-11
-3.32165e-11
2.7008e-11
-3.73482e-11
2.77949e-11
-4.15974e-11
2.83136e-11
-4.59303e-11
2.85414e-11
-5.02736e-11
2.84105e-11
-5.45803e-11
2.79233e-11
-5.87849e-11
2.7051e-11
-6.28148e-11
2.57802e-11
-6.65898e-11
2.41041e-11
-7.00346e-11
2.20413e-11
-7.30776e-11
1.96051e-11
-7.56489e-11
1.68445e-11
-7.76889e-11
1.38095e-11
-7.91446e-11
1.05746e-11
-7.99939e-11
7.22029e-12
-8.02201e-11
3.85372e-12
-7.98449e-11
5.7045e-13
-7.8872e-11
-2.52767e-12
-7.73684e-11
-5.32128e-12
-7.54188e-11
-7.71846e-12
-7.31162e-11
-9.63633e-12
-7.05638e-11
-1.10199e-11
-6.78798e-11
-1.18248e-11
-6.51953e-11
-1.20349e-11
-6.26199e-11
-1.16746e-11
-6.02638e-11
-1.07792e-11
-5.82205e-11
-9.41269e-12
-5.65651e-11
-7.65841e-12
-5.53504e-11
-5.61276e-12
-5.46122e-11
-3.3777e-12
-5.43731e-11
-1.04473e-12
-5.45849e-11
1.23028e-12
-5.5236e-11
3.40551e-12
-5.6275e-11
5.37836e-12
-5.765e-11
7.08114e-12
-5.92913e-11
8.46746e-12
-6.11259e-11
9.48485e-12
-6.30807e-11
1.01258e-11
-6.50711e-11
1.03771e-11
-6.7038e-11
1.02416e-11
-6.89164e-11
9.74273e-12
-7.06513e-11
8.90071e-12
-7.21783e-11
7.72011e-12
-7.34592e-11
6.27505e-12
-7.44714e-11
4.60689e-12
-7.51662e-11
2.72614e-12
-7.55388e-11
6.95719e-13
-7.55869e-11
-1.45906e-12
-7.52839e-11
-3.68826e-12
-7.46359e-11
-5.95604e-12
-7.3654e-11
-8.25435e-12
-7.23156e-11
-1.0526e-11
-7.06617e-11
-1.27369e-11
-6.86956e-11
-1.4901e-11
-6.64313e-11
-1.69876e-11
-6.38881e-11
-1.89864e-11
-6.10755e-11
-2.08912e-11
-5.80125e-11
-2.26833e-11
-5.47251e-11
-2.43424e-11
-5.12303e-11
-2.58977e-11
-4.75528e-11
-2.73261e-11
-4.37126e-11
-2.86374e-11
-3.97297e-11
-2.98204e-11
-3.56168e-11
-3.08695e-11
-3.13918e-11
-3.17869e-11
-2.70677e-11
-3.25805e-11
-2.26609e-11
-3.326e-11
-1.81794e-11
-3.38291e-11
-1.36384e-11
-3.42845e-11
-9.03885e-12
-3.46385e-11
-4.37597e-12
-3.51138e-11
-3.37378e-11
-4.46609e-13
-8.68689e-12
1.96365e-13
-3.93128e-12
1.12934e-12
-1.61232e-12
2.02719e-12
-7.78265e-13
2.77544e-12
-5.2407e-13
3.35979e-12
-2.63723e-13
3.8043e-12
6.85254e-14
4.13019e-12
5.30041e-13
4.3123e-12
1.11307e-12
4.37283e-12
1.83281e-12
4.30285e-12
2.68551e-12
4.09727e-12
3.67311e-12
3.74416e-12
4.78699e-12
3.22378e-12
6.03422e-12
2.5301e-12
7.38687e-12
1.64313e-12
8.85222e-12
5.6003e-13
1.04251e-11
-7.45408e-13
1.20944e-11
-2.29034e-12
1.38459e-11
-4.07925e-12
1.56662e-11
-6.12941e-12
1.75422e-11
-8.44902e-12
1.94515e-11
-1.10435e-11
2.13706e-11
-1.39339e-11
2.32776e-11
-1.71057e-11
2.51201e-11
-2.05546e-11
2.68741e-11
-2.42718e-11
2.85022e-11
-2.82418e-11
2.99616e-11
-3.24419e-11
3.12075e-11
-3.68393e-11
3.21916e-11
-4.13951e-11
3.28687e-11
-4.60501e-11
3.3196e-11
-5.07629e-11
3.31232e-11
-5.54553e-11
3.26154e-11
-6.00558e-11
3.16504e-11
-6.44807e-11
3.02038e-11
-6.86442e-11
2.8267e-11
-7.24565e-11
2.58537e-11
-7.58213e-11
2.29701e-11
-7.86603e-11
1.96833e-11
-8.0897e-11
1.60463e-11
-8.24686e-11
1.21468e-11
-8.33356e-11
8.08833e-12
-8.34757e-11
3.99529e-12
-8.29082e-11
3.91077e-15
-8.16376e-11
-3.79804e-12
-7.97451e-11
-7.21373e-12
-7.73255e-11
-1.01381e-11
-7.44842e-11
-1.24775e-11
-7.13593e-11
-1.41442e-11
-6.80953e-11
-1.50884e-11
-6.48367e-11
-1.52937e-11
-6.17313e-11
-1.4781e-11
-5.89092e-11
-1.36026e-11
-5.6482e-11
-1.18407e-11
-5.45396e-11
-9.60131e-12
-5.31422e-11
-7.00982e-12
-5.2324e-11
-4.19467e-12
-5.21068e-11
-1.26006e-12
-5.24309e-11
1.55575e-12
-5.32829e-11
4.25687e-12
-5.45896e-11
6.68379e-12
-5.62829e-11
8.77407e-12
-5.8281e-11
1.0466e-11
-6.04923e-11
1.16965e-11
-6.28283e-11
1.24629e-11
-6.52041e-11
1.27548e-11
-6.75343e-11
1.25731e-11
-6.97546e-11
1.19639e-11
-7.18031e-11
1.09495e-11
-7.36072e-11
9.52404e-12
-7.51487e-11
7.8162e-12
-7.63411e-11
5.79712e-12
-7.71956e-11
3.58196e-12
-7.76875e-11
1.18719e-12
-7.78072e-11
-1.33881e-12
-7.75462e-11
-3.94613e-12
-7.69111e-11
-6.59159e-12
-7.59221e-11
-9.24142e-12
-7.45437e-11
-1.19039e-11
-7.28201e-11
-1.44589e-11
-7.0785e-11
-1.69384e-11
-6.84285e-11
-1.9341e-11
-6.57841e-11
-2.16322e-11
-6.28635e-11
-2.3809e-11
-5.96895e-11
-2.58588e-11
-5.62832e-11
-2.77503e-11
-5.26615e-11
-2.9518e-11
-4.88562e-11
-3.11335e-11
-4.48861e-11
-3.26042e-11
-4.07775e-11
-3.39295e-11
-3.65366e-11
-3.5106e-11
-3.21896e-11
-3.61363e-11
-2.77478e-11
-3.7023e-11
-2.32242e-11
-3.77808e-11
-1.86362e-11
-3.84178e-11
-1.39872e-11
-3.8931e-11
-9.27825e-12
-3.93475e-11
-4.49893e-12
-3.98937e-11
-3.82387e-11
-2.54558e-13
-8.4324e-12
4.15689e-13
-4.60248e-12
1.32218e-12
-2.51976e-12
2.22676e-12
-1.68357e-12
3.02091e-12
-1.31866e-12
3.70395e-12
-9.4702e-13
4.26546e-12
-4.93111e-13
4.71054e-12
8.51434e-14
5.03047e-12
7.93877e-13
5.22572e-12
1.63891e-12
5.28691e-12
2.62596e-12
5.20484e-12
3.75674e-12
4.96297e-12
5.03021e-12
4.57268e-12
6.42589e-12
3.99376e-12
7.96747e-12
3.21345e-12
9.63446e-12
2.22229e-12
1.1418e-11
1.00068e-12
1.33169e-11
-4.70053e-13
1.53165e-11
-2.21235e-12
1.74078e-11
-4.23388e-12
1.95629e-11
-6.54936e-12
2.17663e-11
-9.17106e-12
2.39916e-11
-1.21017e-11
2.62075e-11
-1.53573e-11
2.83751e-11
-1.89432e-11
3.04596e-11
-2.28307e-11
3.23894e-11
-2.70149e-11
3.41452e-11
-3.14724e-11
3.56643e-11
-3.61742e-11
3.68928e-11
-4.10786e-11
3.7773e-11
-4.61312e-11
3.82491e-11
-5.12747e-11
3.82668e-11
-5.64247e-11
3.77647e-11
-6.15017e-11
3.67263e-11
-6.64136e-11
3.51145e-11
-7.10492e-11
3.29021e-11
-7.52952e-11
3.00999e-11
-7.90815e-11
2.67564e-11
-8.22638e-11
2.28652e-11
-8.47561e-11
1.85388e-11
-8.64837e-11
1.38754e-11
-8.73825e-11
8.9884e-12
-8.74205e-11
4.03432e-12
-8.6618e-11
-7.97733e-13
-8.50022e-11
-5.41323e-12
-8.26313e-11
-9.58413e-12
-7.9627e-11
-1.31425e-11
-7.61238e-11
-1.59813e-11
-7.22871e-11
-1.79816e-11
-6.82944e-11
-1.90809e-11
-6.43285e-11
-1.92592e-11
-6.05677e-11
-1.8542e-11
-5.71726e-11
-1.69981e-11
-5.42794e-11
-1.47337e-11
-5.1992e-11
-1.18885e-11
-5.03809e-11
-8.6207e-12
-4.94774e-11
-5.0973e-12
-4.92962e-11
-1.44051e-12
-4.97732e-11
2.03235e-12
-5.08922e-11
5.37371e-12
-5.25335e-11
8.32338e-12
-5.46311e-11
1.08722e-11
-5.70639e-11
1.29e-11
-5.9736e-11
1.43693e-11
-6.25414e-11
1.52689e-11
-6.53758e-11
1.55906e-11
-6.81485e-11
1.5347e-11
-7.07705e-11
1.45865e-11
-7.31831e-11
1.33634e-11
-7.53248e-11
1.16645e-11
-7.71182e-11
9.61126e-12
-7.85462e-11
7.22318e-12
-7.9584e-11
4.6203e-12
-8.02058e-11
1.81355e-12
-8.04101e-11
-1.13311e-12
-8.01934e-11
-4.16103e-12
-7.95639e-11
-7.22093e-12
-7.85297e-11
-1.02784e-11
-7.71198e-11
-1.33134e-11
-7.53211e-11
-1.62545e-11
-7.31705e-11
-1.90921e-11
-7.07047e-11
-2.18084e-11
-6.79375e-11
-2.44016e-11
-6.48898e-11
-2.68572e-11
-6.15834e-11
-2.91662e-11
-5.80384e-11
-3.12959e-11
-5.42764e-11
-3.32805e-11
-5.03275e-11
-3.50818e-11
-4.62161e-11
-3.67154e-11
-4.19647e-11
-3.8181e-11
-3.75868e-11
-3.94862e-11
-3.30988e-11
-4.06223e-11
-2.85217e-11
-4.16029e-11
-2.38672e-11
-4.2434e-11
-1.91528e-11
-4.31306e-11
-1.43857e-11
-4.36984e-11
-9.56148e-12
-4.41735e-11
-4.66193e-12
-4.4795e-11
-4.29024e-11
-8.78252e-14
-8.34524e-12
6.40495e-13
-5.33157e-12
1.56005e-12
-3.43985e-12
2.51604e-12
-2.64e-12
3.3925e-12
-2.19567e-12
4.17378e-12
-1.72898e-12
4.85067e-12
-1.17046e-12
5.42116e-12
-4.85061e-13
5.87602e-12
3.40297e-13
6.21276e-12
1.30415e-12
6.41219e-12
2.42856e-12
6.47055e-12
3.7e-12
6.37887e-12
5.12313e-12
6.11043e-12
6.69555e-12
5.65842e-12
8.42092e-12
5.00322e-12
1.02911e-11
4.1206e-12
1.23015e-11
2.99161e-12
1.4446e-11
1.60645e-12
1.67011e-11
-6.20937e-14
1.90754e-11
-2.0399e-12
2.15398e-11
-4.33928e-12
2.40648e-11
-6.97783e-12
2.66294e-11
-9.965e-12
2.9194e-11
-1.33103e-11
3.172e-11
-1.70114e-11
3.41604e-11
-2.10905e-11
3.6468e-11
-2.55098e-11
3.85637e-11
-3.026e-11
4.04137e-11
-3.53099e-11
4.19424e-11
-4.06169e-11
4.30807e-11
-4.61262e-11
4.3759e-11
-5.17682e-11
4.39084e-11
-5.7471e-11
4.34662e-11
-6.31256e-11
4.23794e-11
-6.86214e-11
4.06093e-11
-7.38392e-11
3.81196e-11
-7.86544e-11
3.4915e-11
-8.29182e-11
3.10203e-11
-8.65217e-11
2.6469e-11
-8.93664e-11
2.13843e-11
-9.13106e-11
1.58206e-11
-9.22708e-11
9.94943e-12
-9.22236e-11
3.98753e-12
-9.1146e-11
-1.87468e-12
-8.90807e-11
-7.47788e-12
-8.61378e-11
-1.2527e-11
-8.2414e-11
-1.68668e-11
-7.80916e-11
-2.03042e-11
-7.33702e-11
-2.27031e-11
-6.84721e-11
-2.39785e-11
-6.36274e-11
-2.41032e-11
-5.90557e-11
-2.31133e-11
-5.49553e-11
-2.10982e-11
-5.14905e-11
-1.81979e-11
-4.87883e-11
-1.45903e-11
-4.6932e-11
-1.04776e-11
-4.59513e-11
-6.07853e-12
-4.58165e-11
-1.57615e-12
-4.6519e-11
2.7337e-12
-4.79604e-11
6.81425e-12
-5.00264e-11
1.03892e-11
-5.2644e-11
1.34908e-11
-5.56104e-11
1.58671e-11
-5.88478e-11
1.76072e-11
-6.22226e-11
1.86451e-11
-6.561e-11
1.89794e-11
-6.89054e-11
1.86425e-11
-7.20109e-11
1.7693e-11
-7.4827e-11
1.61824e-11
-7.73449e-11
1.41808e-11
-7.94626e-11
1.17292e-11
-8.11502e-11
8.91361e-12
-8.23762e-11
5.84559e-12
-8.31402e-11
2.5775e-12
-8.34296e-11
-8.41302e-13
-8.32511e-11
-4.34343e-12
-8.26126e-11
-7.85464e-12
-8.15388e-11
-1.13512e-11
-8.00588e-11
-1.47953e-11
-7.81703e-11
-1.8145e-11
-7.58985e-11
-2.13614e-11
-7.32906e-11
-2.44175e-11
-7.03652e-11
-2.73255e-11
-6.71608e-11
-3.00602e-11
-6.36973e-11
-3.26286e-11
-5.99886e-11
-3.50026e-11
-5.60688e-11
-3.72016e-11
-5.19617e-11
-3.91886e-11
-4.76948e-11
-4.09839e-11
-4.32847e-11
-4.25934e-11
-3.87526e-11
-4.40205e-11
-3.41137e-11
-4.52631e-11
-2.93824e-11
-4.63319e-11
-2.45832e-11
-4.72361e-11
-1.9728e-11
-4.79861e-11
-1.48268e-11
-4.85987e-11
-9.87764e-12
-4.91214e-11
-4.85171e-12
-4.98241e-11
-4.7755e-11
6.6747e-14
-8.41258e-12
8.64687e-13
-6.12934e-12
1.8757e-12
-4.45069e-12
2.89063e-12
-3.65503e-12
3.85656e-12
-3.16211e-12
4.74814e-12
-2.62121e-12
5.55007e-12
-1.97257e-12
6.25487e-12
-1.18909e-12
6.85251e-12
-2.55673e-13
7.33092e-12
8.27763e-13
7.68413e-12
2.07709e-12
7.89538e-12
3.48993e-12
7.95134e-12
5.06805e-12
7.8345e-12
6.81333e-12
7.52883e-12
8.72763e-12
7.01214e-12
1.08087e-11
6.2622e-12
1.30519e-11
5.25441e-12
1.54536e-11
3.95638e-12
1.79987e-11
2.36888e-12
2.06624e-11
4.61114e-13
2.34471e-11
-1.80269e-12
2.63282e-11
-4.43718e-12
2.92636e-11
-7.46353e-12
3.22202e-11
-1.08951e-11
3.51513e-11
-1.47424e-11
3.80071e-11
-1.90014e-11
4.07259e-11
-2.36809e-11
4.32422e-11
-2.87542e-11
4.54864e-11
-3.41941e-11
4.73826e-11
-3.99606e-11
4.88476e-11
-4.59968e-11
4.97951e-11
-5.22303e-11
5.01408e-11
-5.85683e-11
4.98024e-11
-6.4901e-11
4.87106e-11
-7.11021e-11
4.68097e-11
-7.70271e-11
4.40445e-11
-8.25266e-11
4.04148e-11
-8.74289e-11
3.59232e-11
-9.1579e-11
3.062e-11
-9.48422e-11
2.46483e-11
-9.70757e-11
1.80544e-11
-9.81531e-11
1.10269e-11
-9.80207e-11
3.85516e-12
-9.66386e-11
-3.25654e-12
-9.40766e-11
-1.00399e-11
-9.04097e-11
-1.61944e-11
-8.58023e-11
-2.14745e-11
-8.04582e-11
-2.56473e-11
-7.46336e-11
-2.85264e-11
-6.8608e-11
-3.00036e-11
-6.26673e-11
-3.00441e-11
-5.70876e-11
-2.86931e-11
-5.21153e-11
-2.60704e-11
-4.79553e-11
-2.23582e-11
-4.47527e-11
-1.77932e-11
-4.26073e-11
-1.26234e-11
-4.15428e-11
-7.14319e-12
-4.1541e-11
-1.57865e-12
-4.25358e-11
3.72732e-12
-4.43824e-11
8.6609e-12
-4.70388e-11
1.3046e-11
-5.02103e-11
1.66624e-11
-5.38799e-11
1.95364e-11
-5.78211e-11
2.15489e-11