/*--------------------------------*- C++ -*----------------------------------*\
| =========                 |                                                 |
| \\      /  F ield         | OpenFOAM: The Open Source CFD Toolbox           |
|  \\    /   O peration     | Version:  2312                                  |
|   \\  /    A nd           | Website:  www.openfoam.com                      |
|    \\/     M anipulation  |                                                 |
\*---------------------------------------------------------------------------*/
FoamFile
{
    version     2.0;
    format      ascii;
    arch        "LSB;label=32;scalar=64";
    class       volVectorField;
    location    "0.15";
    object      U;
}
// * * * * * * * * * * * * * * * * * * * * * * * * * * * * * * * * * * * * * //

dimensions      [0 1 -1 0 0 0 0];

internalField   nonuniform List<vector> 
10000
(
(2.30002e-06 2.23898e-06 0)
(-2.26346e-06 3.73e-06 0)
(-3.37806e-06 9.46683e-07 0)
(-4.89174e-06 -2.86708e-09 0)
(-4.3691e-06 -2.38152e-07 0)
(-3.84674e-06 -2.84143e-07 0)
(-3.3129e-06 -2.45266e-07 0)
(-2.86997e-06 -1.98869e-07 0)
(-2.5207e-06 -1.51497e-07 0)
(-2.25844e-06 -1.18748e-07 0)
(-2.07431e-06 -9.07355e-08 0)
(-1.95774e-06 -6.60831e-08 0)
(-1.89686e-06 -4.44583e-08 0)
(-1.88934e-06 -2.44686e-08 0)
(-1.93214e-06 -4.12537e-09 0)
(-2.02684e-06 1.2647e-08 0)
(-2.17632e-06 3.1662e-08 0)
(-2.38157e-06 5.30313e-08 0)
(-2.64551e-06 7.84094e-08 0)
(-2.97198e-06 1.05524e-07 0)
(-3.3676e-06 1.33899e-07 0)
(-3.83519e-06 1.63991e-07 0)
(-4.3783e-06 1.94583e-07 0)
(-4.9975e-06 2.27444e-07 0)
(-5.69078e-06 2.60027e-07 0)
(-6.456e-06 2.92112e-07 0)
(-7.28746e-06 3.22792e-07 0)
(-8.17938e-06 3.51974e-07 0)
(-9.12333e-06 3.77226e-07 0)
(-1.01089e-05 3.98906e-07 0)
(-1.11251e-05 4.16435e-07 0)
(-1.21599e-05 4.28928e-07 0)
(-1.32012e-05 4.35193e-07 0)
(-1.42361e-05 4.35434e-07 0)
(-1.52525e-05 4.30261e-07 0)
(-1.62381e-05 4.20284e-07 0)
(-1.71802e-05 4.06426e-07 0)
(-1.80676e-05 3.89081e-07 0)
(-1.88926e-05 3.67471e-07 0)
(-1.96447e-05 3.46104e-07 0)
(-2.03174e-05 3.20574e-07 0)
(-2.09069e-05 2.93279e-07 0)
(-2.1411e-05 2.66289e-07 0)
(-2.18331e-05 2.42071e-07 0)
(-2.2172e-05 2.21481e-07 0)
(-2.24331e-05 2.02089e-07 0)
(-2.26242e-05 1.8731e-07 0)
(-2.27534e-05 1.75122e-07 0)
(-2.28319e-05 1.66751e-07 0)
(-2.28725e-05 1.61282e-07 0)
(-2.28874e-05 1.59881e-07 0)
(-2.28897e-05 1.61692e-07 0)
(-2.28941e-05 1.6736e-07 0)
(-2.29119e-05 1.76703e-07 0)
(-2.29546e-05 1.891e-07 0)
(-2.3032e-05 2.03143e-07 0)
(-2.31505e-05 2.17338e-07 0)
(-2.33137e-05 2.30669e-07 0)
(-2.35246e-05 2.42142e-07 0)
(-2.37822e-05 2.53017e-07 0)
(-2.40858e-05 2.60665e-07 0)
(-2.44306e-05 2.6551e-07 0)
(-2.48095e-05 2.66844e-07 0)
(-2.52159e-05 2.643e-07 0)
(-2.5638e-05 2.56175e-07 0)
(-2.60639e-05 2.4247e-07 0)
(-2.64825e-05 2.25834e-07 0)
(-2.68818e-05 2.03499e-07 0)
(-2.72488e-05 1.77262e-07 0)
(-2.75712e-05 1.46683e-07 0)
(-2.78382e-05 1.1108e-07 0)
(-2.8039e-05 7.1296e-08 0)
(-2.81628e-05 2.99529e-08 0)
(-2.82015e-05 -1.36616e-08 0)
(-2.815e-05 -5.97679e-08 0)
(-2.80044e-05 -1.08298e-07 0)
(-2.77603e-05 -1.5669e-07 0)
(-2.74153e-05 -2.05397e-07 0)
(-2.69697e-05 -2.53475e-07 0)
(-2.64252e-05 -3.02248e-07 0)
(-2.5785e-05 -3.51713e-07 0)
(-2.50527e-05 -4.01765e-07 0)
(-2.4233e-05 -4.49712e-07 0)
(-2.33315e-05 -4.93117e-07 0)
(-2.23558e-05 -5.29614e-07 0)
(-2.13112e-05 -5.57986e-07 0)
(-2.01991e-05 -5.78112e-07 0)
(-1.90188e-05 -5.93001e-07 0)
(-1.77682e-05 -6.09391e-07 0)
(-1.64478e-05 -6.34185e-07 0)
(-1.50586e-05 -6.67594e-07 0)
(-1.36003e-05 -7.05742e-07 0)
(-1.20811e-05 -7.44892e-07 0)
(-1.05162e-05 -7.77117e-07 0)
(-8.91833e-06 -7.94928e-07 0)
(-7.29893e-06 -7.99506e-07 0)
(-5.67177e-06 -7.97298e-07 0)
(-4.0466e-06 -7.95712e-07 0)
(-2.42916e-06 -7.96556e-07 0)
(-7.84296e-07 -7.78888e-07 0)
(3.79496e-06 -2.44717e-06 0)
(4.06045e-06 3.86379e-06 0)
(3.11435e-06 1.64785e-06 0)
(1.42569e-06 2.85511e-07 0)
(7.7605e-07 -4.02689e-07 0)
(2.82908e-07 -5.78654e-07 0)
(1.18157e-08 -5.56067e-07 0)
(-1.55287e-07 -4.70338e-07 0)
(-2.78734e-07 -3.67981e-07 0)
(-3.97214e-07 -2.66653e-07 0)
(-5.25191e-07 -1.72317e-07 0)
(-6.87415e-07 -8.52583e-08 0)
(-8.88795e-07 -6.07391e-10 0)
(-1.13744e-06 8.13717e-08 0)
(-1.4437e-06 1.67699e-07 0)
(-1.81016e-06 2.52508e-07 0)
(-2.23823e-06 3.42413e-07 0)
(-2.73324e-06 4.3915e-07 0)
(-3.29833e-06 5.43017e-07 0)
(-3.93703e-06 6.52339e-07 0)
(-4.65096e-06 7.66007e-07 0)
(-5.44016e-06 8.83625e-07 0)
(-6.30451e-06 1.0021e-06 0)
(-7.24287e-06 1.12092e-06 0)
(-8.25294e-06 1.23555e-06 0)
(-9.33018e-06 1.34436e-06 0)
(-1.04669e-05 1.44375e-06 0)
(-1.16593e-05 1.53101e-06 0)
(-1.28982e-05 1.60403e-06 0)
(-1.41699e-05 1.66012e-06 0)
(-1.54644e-05 1.6973e-06 0)
(-1.67693e-05 1.71422e-06 0)
(-1.80703e-05 1.70882e-06 0)
(-1.935e-05 1.68105e-06 0)
(-2.05936e-05 1.6319e-06 0)
(-2.17856e-05 1.56286e-06 0)
(-2.29081e-05 1.47392e-06 0)
(-2.39478e-05 1.36848e-06 0)
(-2.48893e-05 1.24612e-06 0)
(-2.57206e-05 1.1143e-06 0)
(-2.64337e-05 9.68449e-07 0)
(-2.70136e-05 8.17568e-07 0)
(-2.74555e-05 6.65255e-07 0)
(-2.77647e-05 5.16031e-07 0)
(-2.79446e-05 3.75197e-07 0)
(-2.79979e-05 2.44262e-07 0)
(-2.79343e-05 1.26602e-07 0)
(-2.77689e-05 2.6191e-08 0)
(-2.75168e-05 -5.38297e-08 0)
(-2.71969e-05 -1.12667e-07 0)
(-2.68281e-05 -1.49268e-07 0)
(-2.64319e-05 -1.62881e-07 0)
(-2.60303e-05 -1.54337e-07 0)
(-2.56434e-05 -1.25251e-07 0)
(-2.52915e-05 -7.7983e-08 0)
(-2.49926e-05 -1.342e-08 0)
(-2.47577e-05 6.81448e-08 0)
(-2.45946e-05 1.52163e-07 0)
(-2.4508e-05 2.38843e-07 0)
(-2.45021e-05 3.23319e-07 0)
(-2.45788e-05 4.06043e-07 0)
(-2.47306e-05 4.77021e-07 0)
(-2.4951e-05 5.35519e-07 0)
(-2.52339e-05 5.80088e-07 0)
(-2.55647e-05 6.10859e-07 0)
(-2.59245e-05 6.18933e-07 0)
(-2.63042e-05 6.0913e-07 0)
(-2.66894e-05 5.78332e-07 0)
(-2.70593e-05 5.28488e-07 0)
(-2.74026e-05 4.5834e-07 0)
(-2.77073e-05 3.68674e-07 0)
(-2.79572e-05 2.62095e-07 0)
(-2.81385e-05 1.42392e-07 0)
(-2.8243e-05 9.24196e-09 0)
(-2.82631e-05 -1.33184e-07 0)
(-2.81896e-05 -2.81165e-07 0)
(-2.80156e-05 -4.33142e-07 0)
(-2.77375e-05 -5.87068e-07 0)
(-2.73547e-05 -7.38854e-07 0)
(-2.68697e-05 -8.89252e-07 0)
(-2.62843e-05 -1.03688e-06 0)
(-2.55988e-05 -1.18094e-06 0)
(-2.48146e-05 -1.31625e-06 0)
(-2.39352e-05 -1.43987e-06 0)
(-2.29647e-05 -1.5511e-06 0)
(-2.19049e-05 -1.65309e-06 0)
(-2.07577e-05 -1.75099e-06 0)
(-1.95298e-05 -1.84992e-06 0)
(-1.82301e-05 -1.95212e-06 0)
(-1.68661e-05 -2.05899e-06 0)
(-1.5443e-05 -2.16595e-06 0)
(-1.39656e-05 -2.26566e-06 0)
(-1.24414e-05 -2.35157e-06 0)
(-1.0875e-05 -2.41676e-06 0)
(-9.26611e-06 -2.45706e-06 0)
(-7.61889e-06 -2.47781e-06 0)
(-5.94749e-06 -2.48924e-06 0)
(-4.26271e-06 -2.50185e-06 0)
(-2.5791e-06 -2.53709e-06 0)
(-8.15986e-07 -2.45103e-06 0)
(1.00953e-06 -3.69124e-06 0)
(1.84278e-06 2.77566e-06 0)
(3.25948e-06 2.92158e-06 0)
(2.51261e-06 1.73723e-06 0)
(2.10186e-06 7.67527e-07 0)
(1.60671e-06 2.53305e-07 0)
(1.23359e-06 2.42428e-08 0)
(9.47904e-07 -3.55755e-08 0)
(7.17575e-07 -1.87063e-08 0)
(5.03534e-07 5.01346e-08 0)
(2.79579e-07 1.39824e-07 0)
(3.36889e-08 2.46543e-07 0)
(-2.44373e-07 3.62402e-07 0)
(-5.65719e-07 4.84462e-07 0)
(-9.43255e-07 6.14672e-07 0)
(-1.38518e-06 7.56502e-07 0)
(-1.88948e-06 9.04987e-07 0)
(-2.463e-06 1.06286e-06 0)
(-3.10875e-06 1.22895e-06 0)
(-3.82751e-06 1.40293e-06 0)
(-4.62026e-06 1.58363e-06 0)
(-5.48635e-06 1.76886e-06 0)
(-6.42544e-06 1.95538e-06 0)
(-7.43529e-06 2.13977e-06 0)
(-8.51213e-06 2.3175e-06 0)
(-9.65195e-06 2.48505e-06 0)
(-1.08485e-05 2.63723e-06 0)
(-1.20955e-05 2.76847e-06 0)
(-1.33848e-05 2.87754e-06 0)
(-1.4706e-05 2.95887e-06 0)
(-1.60474e-05 3.00898e-06 0)
(-1.73969e-05 3.0246e-06 0)
(-1.87407e-05 3.00353e-06 0)
(-2.00609e-05 2.94478e-06 0)
(-2.13416e-05 2.84808e-06 0)
(-2.25681e-05 2.71533e-06 0)
(-2.37209e-05 2.54758e-06 0)
(-2.47844e-05 2.34691e-06 0)
(-2.57427e-05 2.11667e-06 0)
(-2.65838e-05 1.86045e-06 0)
(-2.72955e-05 1.588e-06 0)
(-2.7861e-05 1.30662e-06 0)
(-2.82797e-05 1.0185e-06 0)
(-2.85533e-05 7.31431e-07 0)
(-2.86832e-05 4.56139e-07 0)
(-2.86772e-05 2.01178e-07 0)
(-2.85435e-05 -2.78191e-08 0)
(-2.82952e-05 -2.23445e-07 0)
(-2.79525e-05 -3.8052e-07 0)
(-2.75371e-05 -4.95017e-07 0)
(-2.70689e-05 -5.6587e-07 0)
(-2.65714e-05 -5.91786e-07 0)
(-2.60706e-05 -5.75174e-07 0)
(-2.55878e-05 -5.19648e-07 0)
(-2.51421e-05 -4.30006e-07 0)
(-2.47492e-05 -3.11096e-07 0)
(-2.44349e-05 -1.68106e-07 0)
(-2.42076e-05 -3.26144e-09 0)
(-2.40651e-05 1.70478e-07 0)
(-2.40097e-05 3.43042e-07 0)
(-2.40476e-05 5.04997e-07 0)
(-2.4175e-05 6.55309e-07 0)
(-2.43756e-05 7.81331e-07 0)
(-2.46412e-05 8.79803e-07 0)
(-2.49652e-05 9.50605e-07 0)
(-2.53282e-05 9.9047e-07 0)
(-2.57122e-05 9.94065e-07 0)
(-2.61049e-05 9.6338e-07 0)
(-2.64872e-05 8.99205e-07 0)
(-2.68464e-05 7.98807e-07 0)
(-2.7168e-05 6.65524e-07 0)
(-2.7437e-05 5.06882e-07 0)
(-2.76425e-05 3.21503e-07 0)
(-2.7774e-05 1.11978e-07 0)
(-2.78205e-05 -1.12236e-07 0)
(-2.77785e-05 -3.496e-07 0)
(-2.76425e-05 -5.96781e-07 0)
(-2.74042e-05 -8.52769e-07 0)
(-2.70626e-05 -1.11422e-06 0)
(-2.6618e-05 -1.37771e-06 0)
(-2.60688e-05 -1.63813e-06 0)
(-2.54126e-05 -1.89005e-06 0)
(-2.46494e-05 -2.12748e-06 0)
(-2.37833e-05 -2.34577e-06 0)
(-2.28189e-05 -2.54432e-06 0)
(-2.1761e-05 -2.72691e-06 0)
(-2.06153e-05 -2.9027e-06 0)
(-1.93894e-05 -3.07719e-06 0)
(-1.80942e-05 -3.24905e-06 0)
(-1.6741e-05 -3.41936e-06 0)
(-1.53348e-05 -3.583e-06 0)
(-1.38759e-05 -3.73509e-06 0)
(-1.23677e-05 -3.86852e-06 0)
(-1.08133e-05 -3.97558e-06 0)
(-9.21426e-06 -4.05362e-06 0)
(-7.57869e-06 -4.10733e-06 0)
(-5.91953e-06 -4.14426e-06 0)
(-4.24263e-06 -4.17515e-06 0)
(-2.56592e-06 -4.24203e-06 0)
(-8.12296e-07 -4.11906e-06 0)
(5.48398e-08 -5.33793e-06 0)
(4.7709e-07 9.4928e-07 0)
(2.07742e-06 2.03721e-06 0)
(1.98678e-06 1.50894e-06 0)
(1.9795e-06 8.36264e-07 0)
(1.7265e-06 4.04137e-07 0)
(1.49223e-06 1.95274e-07 0)
(1.27078e-06 1.33505e-07 0)
(1.05643e-06 1.57679e-07 0)
(8.42518e-07 2.35672e-07 0)
(6.16602e-07 3.49441e-07 0)
(3.64678e-07 4.92478e-07 0)
(7.40805e-08 6.53003e-07 0)
(-2.59512e-07 8.2914e-07 0)
(-6.44201e-07 1.01598e-06 0)
(-1.09207e-06 1.22178e-06 0)
(-1.6064e-06 1.43847e-06 0)
(-2.18857e-06 1.66748e-06 0)
(-2.84353e-06 1.90836e-06 0)
(-3.57289e-06 2.15895e-06 0)
(-4.37797e-06 2.4169e-06 0)
(-5.25862e-06 2.67826e-06 0)
(-6.21403e-06 2.9391e-06 0)
(-7.2426e-06 3.19558e-06 0)
(-8.3412e-06 3.4416e-06 0)
(-9.50567e-06 3.67184e-06 0)
(-1.07304e-05 3.88045e-06 0)
(-1.20082e-05 4.06091e-06 0)
(-1.33311e-05 4.20805e-06 0)
(-1.46889e-05 4.31625e-06 0)
(-1.60705e-05 4.3807e-06 0)
(-1.74636e-05 4.39517e-06 0)
(-1.88524e-05 4.35836e-06 0)
(-2.02186e-05 4.26789e-06 0)
(-2.15446e-05 4.12146e-06 0)
(-2.28137e-05 3.92175e-06 0)
(-2.40075e-05 3.67078e-06 0)
(-2.51097e-05 3.36859e-06 0)
(-2.61031e-05 3.02363e-06 0)
(-2.69683e-05 2.63861e-06 0)
(-2.7693e-05 2.22968e-06 0)
(-2.8269e-05 1.80157e-06 0)
(-2.86905e-05 1.36202e-06 0)
(-2.89542e-05 9.23789e-07 0)
(-2.90624e-05 5.01887e-07 0)
(-2.90228e-05 1.08994e-07 0)
(-2.88468e-05 -2.43e-07 0)
(-2.85504e-05 -5.46112e-07 0)
(-2.81527e-05 -7.91054e-07 0)
(-2.76776e-05 -9.7145e-07 0)
(-2.7148e-05 -1.08309e-06 0)
(-2.65897e-05 -1.12613e-06 0)
(-2.60308e-05 -1.10175e-06 0)
(-2.54951e-05 -1.01464e-06 0)
(-2.50052e-05 -8.71863e-07 0)
(-2.45806e-05 -6.84199e-07 0)
(-2.42303e-05 -4.64392e-07 0)
(-2.39706e-05 -2.13471e-07 0)
(-2.38147e-05 5.44585e-08 0)
(-2.37637e-05 3.25322e-07 0)
(-2.38105e-05 5.79308e-07 0)
(-2.39509e-05 8.15539e-07 0)
(-2.41802e-05 1.01982e-06 0)
(-2.44798e-05 1.18351e-06 0)
(-2.48349e-05 1.29955e-06 0)
(-2.52315e-05 1.37313e-06 0)
(-2.56555e-05 1.39356e-06 0)
(-2.60862e-05 1.36266e-06 0)
(-2.65074e-05 1.28178e-06 0)
(-2.69058e-05 1.14866e-06 0)
(-2.72602e-05 9.67699e-07 0)
(-2.75598e-05 7.46601e-07 0)
(-2.77961e-05 4.87209e-07 0)
(-2.79505e-05 1.9744e-07 0)
(-2.80169e-05 -1.19046e-07 0)
(-2.79923e-05 -4.56921e-07 0)
(-2.78701e-05 -8.08419e-07 0)
(-2.76461e-05 -1.16739e-06 0)
(-2.73153e-05 -1.53215e-06 0)
(-2.68759e-05 -1.89594e-06 0)
(-2.63255e-05 -2.25381e-06 0)
(-2.56622e-05 -2.59946e-06 0)
(-2.48865e-05 -2.93158e-06 0)
(-2.40039e-05 -3.24595e-06 0)
(-2.30226e-05 -3.54149e-06 0)
(-2.19524e-05 -3.8212e-06 0)
(-2.07994e-05 -4.08886e-06 0)
(-1.95664e-05 -4.34604e-06 0)
(-1.82647e-05 -4.5911e-06 0)
(-1.69037e-05 -4.82323e-06 0)
(-1.5485e-05 -5.03837e-06 0)
(-1.40109e-05 -5.23401e-06 0)
(-1.24832e-05 -5.40735e-06 0)
(-1.09061e-05 -5.55344e-06 0)
(-9.28582e-06 -5.67021e-06 0)
(-7.63199e-06 -5.75853e-06 0)
(-5.95686e-06 -5.82254e-06 0)
(-4.26423e-06 -5.87254e-06 0)
(-2.57123e-06 -5.96446e-06 0)
(-8.07105e-07 -5.79753e-06 0)
(-1.77241e-07 -4.94496e-06 0)
(-2.07833e-07 1.63041e-07 0)
(1.10626e-06 1.48565e-06 0)
(1.31191e-06 1.36031e-06 0)
(1.55064e-06 9.32148e-07 0)
(1.50335e-06 6.0481e-07 0)
(1.41321e-06 4.29309e-07 0)
(1.28807e-06 3.6123e-07 0)
(1.14355e-06 3.84535e-07 0)
(9.78171e-07 4.69477e-07 0)
(7.86889e-07 6.01429e-07 0)
(5.60863e-07 7.68135e-07 0)
(2.92287e-07 9.64823e-07 0)
(-2.45729e-08 1.19018e-06 0)
(-3.93555e-07 1.43403e-06 0)
(-8.2676e-07 1.69835e-06 0)
(-1.32933e-06 1.98306e-06 0)
(-1.90048e-06 2.2841e-06 0)
(-2.54656e-06 2.5996e-06 0)
(-3.2698e-06 2.92672e-06 0)
(-4.07246e-06 3.26225e-06 0)
(-4.95489e-06 3.60139e-06 0)
(-5.91616e-06 3.93904e-06 0)
(-6.9558e-06 4.26953e-06 0)
(-8.07131e-06 4.58625e-06 0)
(-9.2584e-06 4.88236e-06 0)
(-1.05121e-05 5.15065e-06 0)
(-1.18255e-05 5.38332e-06 0)
(-1.31901e-05 5.57277e-06 0)
(-1.45956e-05 5.71132e-06 0)
(-1.60311e-05 5.79211e-06 0)
(-1.74816e-05 5.80993e-06 0)
(-1.89297e-05 5.76243e-06 0)
(-2.03587e-05 5.64498e-06 0)
(-2.17478e-05 5.45348e-06 0)
(-2.30783e-05 5.18854e-06 0)
(-2.4333e-05 4.85147e-06 0)
(-2.54901e-05 4.44548e-06 0)
(-2.65306e-05 3.97978e-06 0)
(-2.7435e-05 3.46117e-06 0)
(-2.81889e-05 2.90071e-06 0)
(-2.87838e-05 2.31085e-06 0)
(-2.92108e-05 1.70561e-06 0)
(-2.94644e-05 1.1039e-06 0)
(-2.95461e-05 5.21152e-07 0)
(-2.94667e-05 -2.2914e-08 0)
(-2.9239e-05 -5.14254e-07 0)
(-2.8879e-05 -9.37612e-07 0)
(-2.84085e-05 -1.28056e-06 0)
(-2.78543e-05 -1.53359e-06 0)
(-2.7243e-05 -1.69063e-06 0)
(-2.66036e-05 -1.75111e-06 0)
(-2.59664e-05 -1.71607e-06 0)
(-2.53592e-05 -1.59157e-06 0)
(-2.4807e-05 -1.3873e-06 0)
(-2.43311e-05 -1.11554e-06 0)
(-2.39479e-05 -7.90737e-07 0)
(-2.36669e-05 -4.35195e-07 0)
(-2.34991e-05 -6.31622e-08 0)
(-2.34525e-05 3.1251e-07 0)
(-2.35201e-05 6.74167e-07 0)
(-2.36922e-05 1.00289e-06 0)
(-2.39603e-05 1.29129e-06 0)
(-2.43092e-05 1.52702e-06 0)
(-2.47182e-05 1.70052e-06 0)
(-2.51717e-05 1.80806e-06 0)
(-2.5655e-05 1.84545e-06 0)
(-2.6144e-05 1.81197e-06 0)
(-2.66236e-05 1.7075e-06 0)
(-2.70782e-05 1.53836e-06 0)
(-2.7484e-05 1.30701e-06 0)
(-2.78287e-05 1.01923e-06 0)
(-2.81015e-05 6.83221e-07 0)
(-2.82901e-05 3.08831e-07 0)
(-2.83864e-05 -1.04081e-07 0)
(-2.8383e-05 -5.42215e-07 0)
(-2.82734e-05 -9.96338e-07 0)
(-2.80552e-05 -1.46527e-06 0)
(-2.77262e-05 -1.93475e-06 0)
(-2.72827e-05 -2.3999e-06 0)
(-2.67229e-05 -2.85809e-06 0)
(-2.60477e-05 -3.30616e-06 0)
(-2.52588e-05 -3.74306e-06 0)
(-2.43598e-05 -4.16534e-06 0)
(-2.33619e-05 -4.56779e-06 0)
(-2.22749e-05 -4.94998e-06 0)
(-2.11037e-05 -5.30986e-06 0)
(-1.98522e-05 -5.6473e-06 0)
(-1.85304e-05 -5.96264e-06 0)
(-1.71481e-05 -6.25189e-06 0)
(-1.57086e-05 -6.51576e-06 0)
(-1.42131e-05 -6.75466e-06 0)
(-1.26617e-05 -6.96784e-06 0)
(-1.10573e-05 -7.15241e-06 0)
(-9.40656e-06 -7.30645e-06 0)
(-7.72269e-06 -7.42724e-06 0)
(-6.01999e-06 -7.5172e-06 0)
(-4.3004e-06 -7.58383e-06 0)
(-2.58146e-06 -7.69487e-06 0)
(-8.01151e-07 -7.47711e-06 0)
(-2.22519e-07 -4.54615e-06 0)
(-3.853e-07 -4.70444e-07 0)
(5.90147e-07 8.42207e-07 0)
(8.801e-07 9.66727e-07 0)
(1.22414e-06 7.4328e-07 0)
(1.30807e-06 5.45968e-07 0)
(1.33024e-06 4.44438e-07 0)
(1.29603e-06 4.30044e-07 0)
(1.22506e-06 4.92157e-07 0)
(1.11246e-06 6.13425e-07 0)
(9.62572e-07 7.82963e-07 0)
(7.70695e-07 9.92842e-07 0)
(5.34654e-07 1.2383e-06 0)
(2.44483e-07 1.51608e-06 0)
(-1.04799e-07 1.82314e-06 0)
(-5.15331e-07 2.15276e-06 0)
(-9.96497e-07 2.50789e-06 0)
(-1.55148e-06 2.88495e-06 0)
(-2.18397e-06 3.2791e-06 0)
(-2.89686e-06 3.68711e-06 0)
(-3.69332e-06 4.10487e-06 0)
(-4.57502e-06 4.52745e-06 0)
(-5.54191e-06 4.94797e-06 0)
(-6.59383e-06 5.35885e-06 0)
(-7.72878e-06 5.75292e-06 0)
(-8.94318e-06 6.12165e-06 0)
(-1.02323e-05 6.45608e-06 0)
(-1.15897e-05 6.74705e-06 0)
(-1.30069e-05 6.98518e-06 0)
(-1.44734e-05 7.16133e-06 0)
(-1.59756e-05 7.2668e-06 0)
(-1.74967e-05 7.29644e-06 0)
(-1.90205e-05 7.24155e-06 0)
(-2.05302e-05 7.09649e-06 0)
(-2.20035e-05 6.8596e-06 0)
(-2.34179e-05 6.52671e-06 0)
(-2.47526e-05 6.09979e-06 0)
(-2.59834e-05 5.58425e-06 0)
(-2.70893e-05 4.9879e-06 0)
(-2.80493e-05 4.32158e-06 0)
(-2.88453e-05 3.59652e-06 0)
(-2.94664e-05 2.83088e-06 0)
(-2.98999e-05 2.04623e-06 0)
(-3.01412e-05 1.26147e-06 0)
(-3.01917e-05 4.9918e-07 0)
(-3.00608e-05 -2.14143e-07 0)
(-2.97641e-05 -8.59174e-07 0)
(-2.93192e-05 -1.41519e-06 0)
(-2.87511e-05 -1.86559e-06 0)
(-2.80901e-05 -2.19662e-06 0)
(-2.73678e-05 -2.40035e-06 0)
(-2.66175e-05 -2.47498e-06 0)
(-2.58734e-05 -2.42202e-06 0)
(-2.51684e-05 -2.25001e-06 0)
(-2.45312e-05 -1.97201e-06 0)
(-2.39859e-05 -1.60467e-06 0)
(-2.35518e-05 -1.16798e-06 0)
(-2.32447e-05 -6.84534e-07 0)
(-2.30685e-05 -1.81835e-07 0)
(-2.30278e-05 3.16795e-07 0)
(-2.31213e-05 7.97642e-07 0)
(-2.33346e-05 1.23897e-06 0)
(-2.36564e-05 1.62565e-06 0)
(-2.40705e-05 1.94191e-06 0)
(-2.45531e-05 2.18002e-06 0)
(-2.50851e-05 2.32694e-06 0)
(-2.56493e-05 2.3819e-06 0)
(-2.62209e-05 2.34705e-06 0)
(-2.67769e-05 2.22007e-06 0)
(-2.73011e-05 2.00933e-06 0)
(-2.77733e-05 1.72374e-06 0)
(-2.81769e-05 1.36596e-06 0)
(-2.84993e-05 9.46159e-07 0)
(-2.87304e-05 4.71789e-07 0)
(-2.88607e-05 -4.32753e-08 0)
(-2.88777e-05 -5.84874e-07 0)
(-2.8787e-05 -1.15008e-06 0)
(-2.85794e-05 -1.73104e-06 0)
(-2.8246e-05 -2.31732e-06 0)
(-2.77963e-05 -2.89511e-06 0)
(-2.72298e-05 -3.46438e-06 0)
(-2.6546e-05 -4.02609e-06 0)
(-2.57449e-05 -4.57501e-06 0)
(-2.48279e-05 -5.10741e-06 0)
(-2.38061e-05 -5.61683e-06 0)
(-2.26926e-05 -6.09688e-06 0)
(-2.1494e-05 -6.54621e-06 0)
(-2.02156e-05 -6.96529e-06 0)
(-1.88653e-05 -7.35443e-06 0)
(-1.74528e-05 -7.70877e-06 0)
(-1.59843e-05 -8.02781e-06 0)
(-1.44601e-05 -8.3122e-06 0)
(-1.28788e-05 -8.56309e-06 0)
(-1.12432e-05 -8.78117e-06 0)
(-9.55976e-06 -8.96679e-06 0)
(-7.84204e-06 -9.11847e-06 0)
(-6.10424e-06 -9.23458e-06 0)
(-4.35023e-06 -9.3197e-06 0)
(-2.60193e-06 -9.45048e-06 0)
(-8.01408e-07 -9.16469e-06 0)
(-1.82124e-07 -4.13338e-06 0)
(-3.68412e-07 -8.81479e-07 0)
(3.5999e-07 3.29731e-07 0)
(6.75837e-07 5.89399e-07 0)
(1.0457e-06 5.10689e-07 0)
(1.20459e-06 4.25614e-07 0)
(1.30779e-06 4.03122e-07 0)
(1.34599e-06 4.47544e-07 0)
(1.3359e-06 5.53676e-07 0)
(1.27694e-06 7.16248e-07 0)
(1.17348e-06 9.28407e-07 0)
(1.02275e-06 1.18474e-06 0)
(8.21533e-07 1.48302e-06 0)
(5.65711e-07 1.81576e-06 0)
(2.48039e-07 2.18617e-06 0)
(-1.37583e-07 2.5884e-06 0)
(-5.93206e-07 3.01678e-06 0)
(-1.12583e-06 3.47072e-06 0)
(-1.74147e-06 3.94847e-06 0)
(-2.4416e-06 4.44182e-06 0)
(-3.2302e-06 4.94686e-06 0)
(-4.11035e-06 5.45805e-06 0)
(-5.08377e-06 5.96725e-06 0)
(-6.15027e-06 6.46538e-06 0)
(-7.30825e-06 6.94389e-06 0)
(-8.55525e-06 7.39286e-06 0)
(-9.88688e-06 7.80177e-06 0)
(-1.12967e-05 8.15981e-06 0)
(-1.27762e-05 8.45586e-06 0)
(-1.43143e-05 8.67914e-06 0)
(-1.58963e-05 8.81894e-06 0)
(-1.7507e-05 8.86561e-06 0)
(-1.91297e-05 8.80696e-06 0)
(-2.07406e-05 8.63819e-06 0)
(-2.23174e-05 8.35445e-06 0)
(-2.38378e-05 7.9517e-06 0)
(-2.5275e-05 7.43113e-06 0)
(-2.66014e-05 6.79808e-06 0)
(-2.77926e-05 6.05996e-06 0)
(-2.88256e-05 5.2312e-06 0)
(-2.96788e-05 4.32668e-06 0)
(-3.03333e-05 3.36869e-06 0)
(-3.07796e-05 2.38355e-06 0)
(-3.10108e-05 1.39491e-06 0)
(-3.1021e-05 4.34533e-07 0)
(-3.08244e-05 -4.70307e-07 0)
(-3.04395e-05 -1.28726e-06 0)
(-2.98849e-05 -1.99045e-06 0)
(-2.91894e-05 -2.5583e-06 0)
(-2.83886e-05 -2.97182e-06 0)
(-2.75209e-05 -3.22111e-06 0)
(-2.66249e-05 -3.30404e-06 0)
(-2.57411e-05 -3.22208e-06 0)
(-2.49088e-05 -2.98756e-06 0)
(-2.41613e-05 -2.61757e-06 0)
(-2.35269e-05 -2.13436e-06 0)
(-2.30276e-05 -1.56476e-06 0)
(-2.26808e-05 -9.37785e-07 0)
(-2.24979e-05 -2.82205e-07 0)
(-2.24733e-05 3.64842e-07 0)
(-2.25982e-05 9.85127e-07 0)
(-2.28645e-05 1.55303e-06 0)
(-2.32577e-05 2.04677e-06 0)
(-2.37551e-05 2.44973e-06 0)
(-2.43334e-05 2.75112e-06 0)
(-2.497e-05 2.94013e-06 0)
(-2.5635e-05 3.01365e-06 0)
(-2.63058e-05 2.97397e-06 0)
(-2.69612e-05 2.82409e-06 0)
(-2.75743e-05 2.56888e-06 0)
(-2.81269e-05 2.21895e-06 0)
(-2.86058e-05 1.78327e-06 0)
(-2.8995e-05 1.27297e-06 0)
(-2.92789e-05 6.93985e-07 0)
(-2.94425e-05 6.63809e-08 0)
(-2.94893e-05 -5.95401e-07 0)
(-2.94192e-05 -1.28468e-06 0)
(-2.92223e-05 -1.9843e-06 0)
(-2.88903e-05 -2.69353e-06 0)
(-2.84299e-05 -3.40046e-06 0)
(-2.78541e-05 -4.09305e-06 0)
(-2.71586e-05 -4.77141e-06 0)
(-2.63404e-05 -5.43229e-06 0)
(-2.54018e-05 -6.07042e-06 0)
(-2.43514e-05 -6.68164e-06 0)
(-2.32041e-05 -7.25762e-06 0)
(-2.19717e-05 -7.79808e-06 0)
(-2.06599e-05 -8.30324e-06 0)
(-1.92733e-05 -8.77084e-06 0)
(-1.78209e-05 -9.19617e-06 0)
(-1.63115e-05 -9.57476e-06 0)
(-1.4748e-05 -9.90679e-06 0)
(-1.31303e-05 -1.01958e-05 0)
(-1.14608e-05 -1.04473e-05 0)
(-9.74373e-06 -1.06637e-05 0)
(-7.99036e-06 -1.08461e-05 0)
(-6.21292e-06 -1.09895e-05 0)
(-4.42019e-06 -1.10974e-05 0)
(-2.63735e-06 -1.12517e-05 0)
(-8.10943e-07 -1.08726e-05 0)
(-1.35578e-07 -3.81017e-06 0)
(-2.83223e-07 -1.19753e-06 0)
(2.95839e-07 -9.35951e-08 0)
(6.11245e-07 2.22213e-07 0)
(9.78991e-07 2.38477e-07 0)
(1.19011e-06 2.44123e-07 0)
(1.35219e-06 2.9295e-07 0)
(1.44773e-06 3.95731e-07 0)
(1.49493e-06 5.52371e-07 0)
(1.48829e-06 7.63755e-07 0)
(1.43212e-06 1.02526e-06 0)
(1.32634e-06 1.33411e-06 0)
(1.16671e-06 1.6881e-06 0)
(9.48615e-07 2.08463e-06 0)
(6.68708e-07 2.51959e-06 0)
(3.16048e-07 2.99325e-06 0)
(-1.13473e-07 3.5022e-06 0)
(-6.19143e-07 4.03782e-06 0)
(-1.21231e-06 4.60119e-06 0)
(-1.89799e-06 5.18548e-06 0)
(-2.6767e-06 5.78331e-06 0)
(-3.55435e-06 6.38816e-06 0)
(-4.53442e-06 6.99245e-06 0)
(-5.61714e-06 7.58755e-06 0)
(-6.80135e-06 8.16062e-06 0)
(-8.08545e-06 8.70043e-06 0)
(-9.46561e-06 9.19501e-06 0)
(-1.09358e-05 9.63187e-06 0)
(-1.24879e-05 9.99755e-06 0)
(-1.41106e-05 1.02782e-05 0)
(-1.57894e-05 1.046e-05 0)
(-1.75089e-05 1.05292e-05 0)
(-1.9248e-05 1.04759e-05 0)
(-2.09828e-05 1.02899e-05 0)
(-2.26899e-05 9.96179e-06 0)
(-2.4341e-05 9.48865e-06 0)
(-2.59059e-05 8.87e-06 0)
(-2.73541e-05 8.11102e-06 0)
(-2.86556e-05 7.21875e-06 0)
(-2.97818e-05 6.21113e-06 0)
(-3.0707e-05 5.10703e-06 0)
(-3.14087e-05 3.9335e-06 0)
(-3.18729e-05 2.71932e-06 0)
(-3.20893e-05 1.50189e-06 0)
(-3.20561e-05 3.15402e-07 0)
(-3.17818e-05 -8.06015e-07 0)
(-3.12834e-05 -1.81731e-06 0)
(-3.05894e-05 -2.68538e-06 0)
(-2.97317e-05 -3.38279e-06 0)
(-2.87521e-05 -3.88642e-06 0)
(-2.76993e-05 -4.18245e-06 0)
(-2.66177e-05 -4.26675e-06 0)
(-2.55561e-05 -4.14453e-06 0)
(-2.4563e-05 -3.83044e-06 0)
(-2.36771e-05 -3.34691e-06 0)
(-2.29324e-05 -2.72321e-06 0)
(-2.23545e-05 -1.99435e-06 0)
(-2.19615e-05 -1.19766e-06 0)
(-2.17654e-05 -3.69728e-07 0)
(-2.176e-05 4.51597e-07 0)
(-2.19327e-05 1.2327e-06 0)
(-2.22726e-05 1.94253e-06 0)
(-2.27594e-05 2.55571e-06 0)
(-2.33659e-05 3.05425e-06 0)
(-2.40625e-05 3.4222e-06 0)
(-2.48225e-05 3.65553e-06 0)
(-2.56154e-05 3.74859e-06 0)
(-2.64103e-05 3.7005e-06 0)
(-2.71818e-05 3.51906e-06 0)
(-2.7906e-05 3.21235e-06 0)
(-2.85587e-05 2.7872e-06 0)
(-2.91226e-05 2.2631e-06 0)
(-2.95883e-05 1.64953e-06 0)
(-2.99368e-05 9.61014e-07 0)
(-3.01499e-05 2.08574e-07 0)
(-3.02287e-05 -5.90708e-07 0)
(-3.0176e-05 -1.41291e-06 0)
(-2.99883e-05 -2.24883e-06 0)
(-2.96623e-05 -3.08969e-06 0)
(-2.9196e-05 -3.93032e-06 0)
(-2.86009e-05 -4.75094e-06 0)
(-2.78853e-05 -5.54851e-06 0)
(-2.70439e-05 -6.32142e-06 0)
(-2.60772e-05 -7.06535e-06 0)
(-2.49932e-05 -7.77607e-06 0)
(-2.38088e-05 -8.447e-06 0)
(-2.25394e-05 -9.07689e-06 0)
(-2.11881e-05 -9.66613e-06 0)
(-1.9758e-05 -1.0212e-05 0)
(-1.82565e-05 -1.07106e-05 0)
(-1.66946e-05 -1.11536e-05 0)
(-1.50809e-05 -1.15397e-05 0)
(-1.34191e-05 -1.18722e-05 0)
(-1.17109e-05 -1.21598e-05 0)
(-9.95842e-06 -1.24084e-05 0)
(-8.16803e-06 -1.26204e-05 0)
(-6.34858e-06 -1.27916e-05 0)
(-4.51594e-06 -1.29242e-05 0)
(-2.69528e-06 -1.31042e-05 0)
(-8.34099e-07 -1.26131e-05 0)
(-9.37648e-08 -3.57897e-06 0)
(-1.81363e-07 -1.46186e-06 0)
(3.15874e-07 -4.72343e-07 0)
(6.30427e-07 -1.37343e-07 0)
(9.97729e-07 -5.44298e-08 0)
(1.24892e-06 2.49493e-08 0)
(1.45822e-06 1.33027e-07 0)
(1.60536e-06 2.92121e-07 0)
(1.70403e-06 4.99958e-07 0)
(1.75e-06 7.61028e-07 0)
(1.74405e-06 1.07457e-06 0)
(1.68585e-06 1.43905e-06 0)
(1.57237e-06 1.8515e-06 0)
(1.39758e-06 2.31487e-06 0)
(1.15707e-06 2.81947e-06 0)
(8.45381e-07 3.36614e-06 0)
(4.51668e-07 3.95611e-06 0)
(-2.65655e-08 4.5799e-06 0)
(-5.93557e-07 5.23366e-06 0)
(-1.25925e-06 5.91423e-06 0)
(-2.02735e-06 6.6122e-06 0)
(-2.90109e-06 7.31902e-06 0)
(-3.8843e-06 8.02652e-06 0)
(-4.98208e-06 8.72554e-06 0)
(-6.19543e-06 9.40498e-06 0)
(-7.52098e-06 1.00503e-05 0)
(-8.95559e-06 1.0645e-05 0)
(-1.04943e-05 1.11748e-05 0)
(-1.21301e-05 1.1624e-05 0)
(-1.3852e-05 1.19754e-05 0)
(-1.56454e-05 1.2212e-05 0)
(-1.74912e-05 1.23173e-05 0)
(-1.93691e-05 1.22778e-05 0)
(-2.12548e-05 1.20783e-05 0)
(-2.31185e-05 1.17098e-05 0)
(-2.49294e-05 1.11665e-05 0)
(-2.66523e-05 1.04457e-05 0)
(-2.82522e-05 9.55166e-06 0)
(-2.96919e-05 8.49138e-06 0)
(-3.09365e-05 7.28646e-06 0)
(-3.19555e-05 5.95839e-06 0)
(-3.27202e-05 4.53866e-06 0)
(-3.32103e-05 3.06407e-06 0)
(-3.34136e-05 1.57999e-06 0)
(-3.33279e-05 1.31009e-07 0)
(-3.29563e-05 -1.2402e-06 0)
(-3.2318e-05 -2.47624e-06 0)
(-3.14495e-05 -3.53503e-06 0)
(-3.03896e-05 -4.38129e-06 0)
(-2.91873e-05 -4.98713e-06 0)
(-2.79004e-05 -5.3339e-06 0)
(-2.65862e-05 -5.41524e-06 0)
(-2.53039e-05 -5.2401e-06 0)
(-2.41103e-05 -4.82634e-06 0)
(-2.30532e-05 -4.20317e-06 0)
(-2.21735e-05 -3.4087e-06 0)
(-2.15012e-05 -2.48751e-06 0)
(-2.10554e-05 -1.4867e-06 0)
(-2.0848e-05 -4.52885e-07 0)
(-2.08703e-05 5.69024e-07 0)
(-2.11067e-05 1.536e-06 0)
(-2.15409e-05 2.40897e-06 0)
(-2.21455e-05 3.16169e-06 0)
(-2.28883e-05 3.76921e-06 0)
(-2.37319e-05 4.21686e-06 0)
(-2.46435e-05 4.49551e-06 0)
(-2.55899e-05 4.60439e-06 0)
(-2.65352e-05 4.5453e-06 0)
(-2.74491e-05 4.32459e-06 0)
(-2.83059e-05 3.95213e-06 0)
(-2.90759e-05 3.44113e-06 0)
(-2.97432e-05 2.81047e-06 0)
(-3.02969e-05 2.08348e-06 0)
(-3.07197e-05 1.27265e-06 0)
(-3.09941e-05 3.84955e-07 0)
(-3.11107e-05 -5.58625e-07 0)
(-3.10774e-05 -1.53059e-06 0)
(-3.08991e-05 -2.51796e-06 0)
(-3.05719e-05 -3.50771e-06 0)
(-3.00912e-05 -4.48503e-06 0)
(-2.94723e-05 -5.44096e-06 0)
(-2.87291e-05 -6.36245e-06 0)
(-2.78572e-05 -7.25236e-06 0)
(-2.68563e-05 -8.1051e-06 0)
(-2.57328e-05 -8.91768e-06 0)
(-2.45046e-05 -9.68461e-06 0)
(-2.31906e-05 -1.0401e-05 0)
(-2.17948e-05 -1.10677e-05 0)
(-2.03176e-05 -1.16867e-05 0)
(-1.87623e-05 -1.22551e-05 0)
(-1.71404e-05 -1.27648e-05 0)
(-1.54663e-05 -1.32108e-05 0)
(-1.37502e-05 -1.35945e-05 0)
(-1.19968e-05 -1.3923e-05 0)
(-1.02043e-05 -1.42052e-05 0)
(-8.37408e-06 -1.4445e-05 0)
(-6.5112e-06 -1.46408e-05 0)
(-4.63723e-06 -1.47985e-05 0)
(-2.77643e-06 -1.50063e-05 0)
(-8.69976e-07 -1.43974e-05 0)
(-5.93511e-08 -3.43253e-06 0)
(-8.52303e-08 -1.71846e-06 0)
(3.77468e-07 -8.34113e-07 0)
(7.05624e-07 -4.95773e-07 0)
(1.08098e-06 -3.64761e-07 0)
(1.36861e-06 -2.32053e-07 0)
(1.61814e-06 -7.1632e-08 0)
(1.81445e-06 1.3701e-07 0)
(1.96377e-06 3.95431e-07 0)
(2.06291e-06 7.06599e-07 0)
(2.1102e-06 1.07365e-06 0)
(2.10337e-06 1.49533e-06 0)
(2.04268e-06 1.97087e-06 0)
(1.91678e-06 2.49918e-06 0)
(1.72024e-06 3.07818e-06 0)
(1.45301e-06 3.70501e-06 0)
(1.10058e-06 4.37675e-06 0)
(6.5865e-07 5.09054e-06 0)
(1.22234e-07 5.84142e-06 0)
(-5.19258e-07 6.62448e-06 0)
(-1.27174e-06 7.42993e-06 0)
(-2.13989e-06 8.24955e-06 0)
(-3.1278e-06 9.0729e-06 0)
(-4.23862e-06 9.88835e-06 0)
(-5.4766e-06 1.06848e-05 0)
(-6.84547e-06 1.14473e-05 0)
(-8.34109e-06 1.21595e-05 0)
(-9.95674e-06 1.27994e-05 0)
(-1.16872e-05 1.33488e-05 0)
(-1.35225e-05 1.37878e-05 0)
(-1.54474e-05 1.40959e-05 0)
(-1.74429e-05 1.42527e-05 0)
(-1.94869e-05 1.42385e-05 0)
(-2.15507e-05 1.40367e-05 0)
(-2.36015e-05 1.36337e-05 0)
(-2.56049e-05 1.30199e-05 0)
(-2.75204e-05 1.21917e-05 0)
(-2.9308e-05 1.11516e-05 0)
(-3.09202e-05 9.90855e-06 0)
(-3.2314e-05 8.48413e-06 0)
(-3.34539e-05 6.90184e-06 0)
(-3.43022e-05 5.19901e-06 0)
(-3.48305e-05 3.4218e-06 0)
(-3.50209e-05 1.62424e-06 0)
(-3.4875e-05 -1.36551e-07 0)
(-3.43881e-05 -1.79619e-06 0)
(-3.35774e-05 -3.30129e-06 0)
(-3.24936e-05 -4.58907e-06 0)
(-3.11828e-05 -5.61451e-06 0)
(-2.97037e-05 -6.34126e-06 0)
(-2.81265e-05 -6.74589e-06 0)
(-2.65231e-05 -6.82144e-06 0)
(-2.49663e-05 -6.57754e-06 0)
(-2.35251e-05 -6.03833e-06 0)
(-2.22585e-05 -5.24137e-06 0)
(-2.12158e-05 -4.23594e-06 0)
(-2.04316e-05 -3.07787e-06 0)
(-1.99261e-05 -1.82688e-06 0)
(-1.9709e-05 -5.43789e-07 0)
(-1.97705e-05 7.22191e-07 0)
(-2.00921e-05 1.91032e-06 0)
(-2.06463e-05 2.98013e-06 0)
(-2.13987e-05 3.89847e-06 0)
(-2.23103e-05 4.63386e-06 0)
(-2.3336e-05 5.1707e-06 0)
(-2.44348e-05 5.49905e-06 0)
(-2.55654e-05 5.62011e-06 0)
(-2.669e-05 5.54001e-06 0)
(-2.77747e-05 5.26804e-06 0)
(-2.87892e-05 4.81626e-06 0)
(-2.97001e-05 4.20203e-06 0)
(-3.048e-05 3.44686e-06 0)
(-3.11259e-05 2.58574e-06 0)
(-3.16351e-05 1.63292e-06 0)
(-3.1981e-05 5.99207e-07 0)
(-3.21441e-05 -4.98187e-07 0)
(-3.21352e-05 -1.6305e-06 0)
(-3.19654e-05 -2.779e-06 0)
(-3.16293e-05 -3.92616e-06 0)
(-3.11292e-05 -5.05757e-06 0)
(-3.04782e-05 -6.15849e-06 0)
(-2.96966e-05 -7.21513e-06 0)
(-2.87864e-05 -8.22998e-06 0)
(-2.77423e-05 -9.19854e-06 0)
(-2.65724e-05 -1.01177e-05 0)
(-2.52918e-05 -1.09832e-05 0)
(-2.39222e-05 -1.17877e-05 0)
(-2.24736e-05 -1.25294e-05 0)
(-2.09451e-05 -1.32154e-05 0)
(-1.93343e-05 -1.38464e-05 0)
(-1.76501e-05 -1.44187e-05 0)
(-1.59104e-05 -1.49245e-05 0)
(-1.41312e-05 -1.53625e-05 0)
(-1.23214e-05 -1.57359e-05 0)
(-1.04804e-05 -1.60516e-05 0)
(-8.60465e-06 -1.63171e-05 0)
(-6.69786e-06 -1.65345e-05 0)
(-4.78317e-06 -1.6717e-05 0)
(-2.87872e-06 -1.69548e-05 0)
(-9.1427e-07 -1.62382e-05 0)
(-3.31222e-08 -3.36057e-06 0)