# Probe 0 (0.025 0.025 0)
# Time        0            
0.2           14.0814      
0.201667      14.0986      
0.203131      14.0773      
0.204747      14.1027      
0.206423      14.0919      
0.208037      14.0807      
0.209651      14.1155      
0.211265      14.0662      
0.212815      14.0887      
0.214431      14.0329      
0.216048      14.0837      
0.217746      14.0897      
0.219359      14.0927      
0.220891      14.1271      
0.222603      14.0928      
0.224315      14.0676      
0.225921      14.1088      
0.227425      14.0972      
0.229162      14.1099      
0.23065       14.0794      
0.232263      14.1452      
0.233741      14.0937      
0.235367      14.1642      
0.236993      14.0695      
0.238619      14.153       
0.240041      14.0875      
0.241701      14.1479      
0.243361      14.087       
0.244689      14.1576      
0.246017      14.0993      
0.247344      14.1222      
0.248672      14.1224      
0.25          14.1332      
0.251471      14.1141      
0.252987      14.1214      
0.254608      14.1351      
0.256173      14.1165      
0.257685      14.1427      
0.259252      14.1264      
0.260819      14.1263      
0.262386      14.1397      
0.263833      14.1119      
0.26534       14.1219      
0.266916      14.1196      
0.268491      14.1392      
0.269991      14.1495      
0.271492      14.1431      
0.273076      14.1462      
0.274659      14.1127      
0.27615       14.1696      
0.27774       14.086       
0.27933       14.1765      
0.281053      14.1275      
0.28251       14.1757      
0.2841        14.1281      
0.28569       14.1451      
0.28728       14.1286      
0.28887       14.1709      
0.29046       14.1203      
0.29205       14.2163      
0.29364       14.0996      
0.29523       14.2059      
0.29682       14.111       
0.29841       14.1793      
0.3           14.1102      
0.301786      14.1645      
0.303393      14.1326      
0.305119      14.1822      
0.306781      14.1532      
0.308222      14.0945      
0.309829      14.1495      
0.311436      14.129       
0.313042      14.1874      
0.314582      14.1266      
0.316192      14.0914      
0.317729      14.1698      
0.319427      14.1084      
0.320956      14.1875      
0.322665      14.0992      
0.324273      14.1409      
0.325988      14.1167      
0.327488      14.1422      
0.32922       14.1521      
0.330819      14.1235      
0.332562      14.1545      
0.334015      14.0901      
0.335614      14.1332      
0.337212      14.098       
0.338811      14.1281      
0.340409      14.1408      
0.342008      14.0978      
0.343606      14.1339      
0.345205      14.0809      
0.346803      14.1712      
0.348402      14.0578      
0.35          14.197       
0.351389      14.0552      
0.352957      14.1435      
0.354637      14.0916      
0.356257      14.1287      
0.358007      14.1419      
0.359455      14.0944      
0.361077      14.1349      
0.362699      14.0707      
0.364253      14.1459      
0.365955      14.1024      
0.367503      14.1466      
0.369213      14.0942      
0.370612      14.1339      
0.372159      14.108       
0.373899      14.1197      
0.375434      14.1452      
0.377189      14.1329      
0.378615      14.1604      
0.38026       14.0702      
0.381905      14.1184      
0.38355       14.0958      
0.385195      14.1567      
0.38684       14.0818      
0.388485      14.128       
0.389924      14.0907      
0.391604      14.0921      
0.393283      14.1534      
0.394962      14.0982      
0.396641      14.1583      
0.398321      14.0804      
0.4           14.1136      
0.401515      14.0756      
0.403187      14.1072      
0.404988      14.1396      
0.406488      14.0954      
0.408161      14.1034      
0.409771      14.1144      
0.411599      14.1042      
0.413345      14.191       
0.414938      14.0847      
0.416608      14.1063      
0.418198      14.0618      
0.419965      14.1077      
0.421634      14.1263      
0.423525      14.1476      
0.424995      14.1036      
0.426662      14.0489      
0.428458      14.1686      
0.430115      14.0634      
0.431923      14.1622      
0.433566      14.118       
0.435392      14.0481      
0.437015      14.1639      
0.43887       14.0438      
0.440725      14.1692      
0.442271      14.0958      
0.444203      14.1029      
0.446135      14.1926      
0.448068      14.0547      
0.45          14.2011      
0.451724      13.9609      
0.453233      14.0397      
0.454965      14.1493      
0.456923      14.1165      
0.458518      14.0892      
0.460055      14.0538      
0.461791      14.1244      
0.463528      14.1584      
0.465114      14.045       
0.466858      14.1033      
0.468603      14.0851      
0.470449      14.1783      
0.472005      14.1328      
0.47356       14.0556      
0.475323      14.1478      
0.476865      14.1084      
0.478645      14.1298      
0.480287      14.1592      
0.48193       14.0916      
0.483737      14.1731      
0.485363      14.1328      
0.48699       14.1315      
0.488616      14.1087      
0.490513      14.1065      
0.492411      14.1587      
0.494308      14.1263      
0.496205      14.2348      
0.49747       14.0475      
0.498735      14.1084      
0.5           14.0868      
