/*--------------------------------*- C++ -*----------------------------------*\
| =========                 |                                                 |
| \\      /  F ield         | OpenFOAM: The Open Source CFD Toolbox           |
|  \\    /   O peration     | Version:  2312                                  |
|   \\  /    A nd           | Website:  www.openfoam.com                      |
|    \\/     M anipulation  |                                                 |
\*---------------------------------------------------------------------------*/
FoamFile
{
    version     2.0;
    format      ascii;
    arch        "LSB;label=32;scalar=64";
    class       surfaceScalarField;
    location    "0.05";
    object      alphaPhi0.water;
}
// * * * * * * * * * * * * * * * * * * * * * * * * * * * * * * * * * * * * * //

dimensions      [0 3 -1 0 0 0 0];

oriented        oriented;

internalField   nonuniform List<scalar> 
19800
(
8.47205e-15
8.7366e-15
-1.32708e-11
1.32793e-11
-1.5847e-11
2.5779e-12
-1.55245e-11
-3.22337e-13
-1.40049e-11
-1.52343e-12
-1.24012e-11
-1.60731e-12
-1.10181e-11
-1.38354e-12
-9.89116e-12
-1.12554e-12
-8.99129e-12
-8.98957e-13
-8.28534e-12
-7.06227e-13
-7.73125e-12
-5.5471e-13
-7.29731e-12
-4.34036e-13
-6.96618e-12
-3.30686e-13
-6.71066e-12
-2.55076e-13
-6.51659e-12
-1.93996e-13
-6.37664e-12
-1.4016e-13
-6.28917e-12
-8.75256e-14
-6.25798e-12
-3.0807e-14
-6.29148e-12
3.41574e-14
-6.40225e-12
1.11197e-13
-6.59965e-12
1.972e-13
-6.89692e-12
2.96562e-13
-7.29833e-12
4.00736e-13
-7.81337e-12
5.1492e-13
-8.43786e-12
6.2495e-13
-9.17739e-12
7.40094e-13
-1.00281e-11
8.5094e-13
-1.09836e-11
9.55279e-13
-1.20302e-11
1.04622e-12
-1.31594e-11
1.12886e-12
-1.4358e-11
1.19819e-12
-1.56129e-11
1.25434e-12
-1.6914e-11
1.30024e-12
-1.82526e-11
1.33758e-12
-1.96202e-11
1.36706e-12
-2.10107e-11
1.39031e-12
-2.24198e-11
1.40902e-12
-2.38403e-11
1.42027e-12
-2.52682e-11
1.42767e-12
-2.66989e-11
1.43059e-12
-2.81267e-11
1.42818e-12
-2.95456e-11
1.41965e-12
-3.09501e-11
1.40484e-12
-3.23341e-11
1.38357e-12
-3.36909e-11
1.35612e-12
-3.50122e-11
1.32045e-12
-3.62909e-11
1.27748e-12
-3.75202e-11
1.22814e-12
-3.86924e-11
1.17244e-12
-3.98026e-11
1.1112e-12
-4.0847e-11
1.04498e-12
-4.18205e-11
9.73948e-13
-4.27187e-11
8.98911e-13
-4.35374e-11
8.19139e-13
-4.42742e-11
7.36492e-13
-4.49259e-11
6.5152e-13
-4.54906e-11
5.65298e-13
-4.59668e-11
4.77172e-13
-4.63536e-11
3.87482e-13
-4.66511e-11
2.97418e-13
-4.68586e-11
2.07493e-13
-4.69765e-11
1.17837e-13
-4.70072e-11
3.03159e-14
-4.69487e-11
-5.82431e-14
-4.67995e-11
-1.4931e-13
-4.65598e-11
-2.3978e-13
-4.62295e-11
-3.29666e-13
-4.58089e-11
-4.20922e-13
-4.5292e-11
-5.16661e-13
-4.46768e-11
-6.16235e-13
-4.39601e-11
-7.18352e-13
-4.31343e-11
-8.24321e-13
-4.21985e-11
-9.33217e-13
-4.11511e-11
-1.04698e-12
-3.99932e-11
-1.15928e-12
-3.87294e-11
-1.26397e-12
-3.7368e-11
-1.35992e-12
-3.59231e-11
-1.44453e-12
-3.44093e-11
-1.51413e-12
-3.28475e-11
-1.56342e-12
-3.12577e-11
-1.58826e-12
-2.96641e-11
-1.59368e-12
-2.80843e-11
-1.58021e-12
-2.65249e-11
-1.56022e-12
-2.4985e-11
-1.54256e-12
-2.34465e-11
-1.53747e-12
-2.18952e-11
-1.54923e-12
-2.03209e-11
-1.57329e-12
-1.87181e-11
-1.60302e-12
-1.70742e-11
-1.64465e-12
-1.53822e-11
-1.69144e-12
-1.36449e-11
-1.73831e-12
-1.18738e-11
-1.76876e-12
-1.00979e-11
-1.77355e-12
-8.34748e-12
-1.75324e-12
-6.63581e-12
-1.71519e-12
-4.95903e-12
-1.67637e-12
-3.30595e-12
-1.65053e-12
-1.66406e-12
-1.64187e-12
-1.66471e-12
1.32791e-11
-1.32704e-11
1.32769e-11
1.32774e-11
9.26157e-12
6.59128e-12
6.21263e-12
2.72961e-12
3.97403e-12
7.17256e-13
2.40866e-12
-4.37002e-14
1.39144e-12
-3.69553e-13
6.8749e-13
-4.23278e-13
1.83304e-13
-3.94444e-13
-1.95453e-13
-3.26429e-13
-5.17858e-13
-2.31677e-13
-8.16449e-13
-1.35364e-13
-1.09637e-12
-5.0868e-14
-1.39473e-12
4.32749e-14
-1.71795e-12
1.29393e-13
-2.07425e-12
2.16524e-13
-2.471e-12
3.09829e-13
-2.90954e-12
4.08347e-13
-3.39028e-12
5.15108e-13
-3.92104e-12
6.41575e-13
-4.50626e-12
7.81674e-13
-5.14047e-12
9.30273e-13
-5.82624e-12
1.08668e-12
-6.56887e-12
1.25828e-12
-7.36105e-12
1.41785e-12
-8.21754e-12
1.59678e-12
-9.13096e-12
1.76402e-12
-1.00997e-11
1.92343e-12
-1.11301e-11
2.0761e-12
-1.2218e-11
2.21609e-12
-1.33632e-11
2.34218e-12
-1.45672e-11
2.45682e-12
-1.5827e-11
2.55853e-12
-1.71387e-11
2.64845e-12
-1.84985e-11
2.7266e-12
-1.99022e-11
2.794e-12
-2.13438e-11
2.85033e-12
-2.28168e-11
2.89293e-12
-2.43138e-11
2.92484e-12
-2.58271e-11
2.94466e-12
-2.73495e-11
2.95139e-12
-2.88721e-11
2.94273e-12
-3.03883e-11
2.92079e-12
-3.189e-11
2.88395e-12
-3.33701e-11
2.83428e-12
-3.48207e-11
2.7698e-12
-3.62342e-11
2.69049e-12
-3.76042e-11
2.59764e-12
-3.89213e-11
2.48991e-12
-4.01803e-11
2.37248e-12
-4.13769e-11
2.24344e-12
-4.2505e-11
2.10166e-12
-4.35568e-11
1.94982e-12
-4.45263e-11
1.78893e-12
-4.54081e-11
1.61924e-12
-4.61932e-11
1.43714e-12
-4.68825e-11
1.25465e-12
-4.74677e-11
1.06299e-12
-4.79436e-11
8.65089e-13
-4.83082e-11
6.6242e-13
-4.85586e-11
4.56816e-13
-4.86911e-11
2.4959e-13
-4.87132e-11
5.22683e-14
-4.86157e-11
-1.53852e-13
-4.8394e-11
-3.6993e-13
-4.80581e-11
-5.77358e-13
-4.76058e-11
-7.83075e-13
-4.7041e-11
-9.87112e-13
-4.63664e-11
-1.18996e-12
-4.55885e-11
-1.39113e-12
-4.47106e-11
-1.59669e-12
-4.37402e-11
-1.79627e-12
-4.2683e-11
-1.98965e-12
-4.15462e-11
-2.18154e-12
-4.03391e-11
-2.36584e-12
-3.9068e-11
-2.53714e-12
-3.77399e-11
-2.68868e-12
-3.63606e-11
-2.82255e-12
-3.49342e-11
-2.93649e-12
-3.34698e-11
-3.02901e-12
-3.19645e-11
-3.09716e-12
-3.04207e-11
-3.14038e-12
-2.88413e-11
-3.16038e-12
-2.72267e-11
-3.17247e-12
-2.55867e-11
-3.18189e-12
-2.39212e-11
-3.20307e-12
-2.22353e-11
-3.23553e-12
-2.05335e-11
-3.27481e-12
-1.88234e-11
-3.31114e-12
-1.71144e-11
-3.3529e-12
-1.54122e-11
-3.39248e-12
-1.37197e-11
-3.42953e-12
-1.20335e-11
-3.4564e-12
-1.03402e-11
-3.46585e-12
-8.63287e-12
-3.45756e-12
-6.91406e-12
-3.43588e-12
-5.18448e-12
-3.40768e-12
-3.45052e-12
-3.38431e-12
-1.72582e-12
-3.36626e-12
-3.3903e-12
2.5777e-12
-1.58463e-11
6.5908e-12
9.2623e-12
6.58758e-12
6.58831e-12
5.55093e-12
3.76321e-12
4.32067e-12
1.94781e-12
3.2987e-12
9.7889e-13
2.46284e-12
4.65743e-13
1.79948e-12
2.38974e-13
1.2957e-12
1.08724e-13
8.7728e-13
9.2045e-14
5.07228e-13
1.38643e-13
1.60693e-13
2.11229e-13
-1.90576e-13
3.00233e-13
-5.53779e-13
4.06345e-13
-9.42367e-13
5.18128e-13
-1.35836e-12
6.32998e-13
-1.80873e-12
7.60846e-13
-2.30269e-12
9.02836e-13
-2.84688e-12
1.05952e-12
-3.42906e-12
1.22376e-12
-4.05803e-12
1.4107e-12
-4.73388e-12
1.60652e-12
-5.45998e-12
1.81346e-12
-6.22984e-12
2.02884e-12
-7.05465e-12
2.24311e-12
-7.92417e-12
2.46642e-12
-8.84722e-12
2.68699e-12
-9.82598e-12
2.90198e-12
-1.08595e-11
3.10917e-12
-1.19501e-11
3.30578e-12
-1.31001e-11
3.49092e-12
-1.43076e-11
3.66312e-12
-1.55704e-11
3.82072e-12
-1.6887e-11
3.96492e-12
-1.82538e-11
4.09354e-12
-1.96669e-11
4.20714e-12
-2.11216e-11
4.30503e-12
-2.26082e-11
4.37976e-12
-2.41203e-11
4.4377e-12
-2.56513e-11
4.47676e-12
-2.71945e-11
4.49539e-12
-2.87413e-11
4.48951e-12
-3.02836e-11
4.46281e-12
-3.18134e-11
4.41324e-12
-3.33231e-11
4.34264e-12
-3.48045e-11
4.24976e-12
-3.62487e-11
4.13458e-12
-3.76487e-11
3.99811e-12
-3.89999e-11
3.84133e-12
-4.02923e-11
3.66546e-12
-4.15197e-11
3.47157e-12
-4.26776e-11
3.25872e-12
-4.37583e-11
3.02882e-12
-4.47539e-11
2.784e-12
-4.56576e-11
2.52373e-12
-4.64676e-11
2.24828e-12
-4.71748e-11
1.96218e-12
-4.77764e-11
1.66454e-12
-4.82658e-11
1.35573e-12
-4.86406e-11
1.03838e-12
-4.8898e-11
7.14161e-13
-4.9033e-11
3.84519e-13
-4.90492e-11
6.74306e-14
-4.89326e-11
-2.70502e-13
-4.86971e-11
-6.04249e-13
-4.83417e-11
-9.32633e-13
-4.78674e-11
-1.2564e-12
-4.72793e-11
-1.57582e-12
-4.65795e-11
-1.8908e-12
-4.57747e-11
-2.19468e-12
-4.48741e-11
-2.49611e-12
-4.38832e-11
-2.78876e-12
-4.28115e-11
-3.06373e-12
-4.16655e-11
-3.32753e-12
-4.04499e-11
-3.57832e-12
-3.91748e-11
-3.81016e-12
-3.78451e-11
-4.01924e-12
-3.64677e-11
-4.20148e-12
-3.5043e-11
-4.36227e-12
-3.3574e-11
-4.49778e-12
-3.20601e-11
-4.61244e-12
-3.05039e-11
-4.69791e-12
-2.89062e-11
-4.7575e-12
-2.7276e-11
-4.80141e-12
-2.56166e-11
-4.83988e-12
-2.39366e-11
-4.88369e-12
-2.22414e-11
-4.93328e-12
-2.05376e-11
-4.97818e-12
-1.88284e-11
-5.01924e-12
-1.71211e-11
-5.05839e-12
-1.54179e-11
-5.09548e-12
-1.37172e-11
-5.13163e-12
-1.20146e-11
-5.15933e-12
-1.03062e-11
-5.17285e-12
-8.59229e-12
-5.17086e-12
-6.87701e-12
-5.15238e-12
-5.15686e-12
-5.12939e-12
-3.43328e-12
-5.11094e-12
-1.71453e-12
-5.08549e-12
-5.1041e-12
-3.22505e-13
-1.55236e-11
2.72916e-12
6.21364e-12
3.76251e-12
5.5519e-12
3.76011e-12
3.76104e-12
3.3441e-12
2.36133e-12
2.83494e-12
1.48778e-12
2.32611e-12
9.74994e-13
1.87656e-12
6.88596e-13
1.45238e-12
5.3247e-13
1.05768e-12
4.86149e-13
6.9378e-13
5.02112e-13
3.44689e-13
5.60192e-13
-7.24465e-15
6.52327e-13
-3.63745e-13
7.63166e-13
-7.43571e-13
8.98286e-13
-1.15584e-12
1.04556e-12
-1.6047e-12
1.21003e-12
-2.09433e-12
1.39299e-12
-2.62549e-12
1.59147e-12
-3.20204e-12
1.80129e-12
-3.82782e-12
2.03748e-12
-4.49956e-12
2.27909e-12
-5.21977e-12
2.53426e-12
-5.9885e-12
2.79798e-12
-6.81396e-12
3.06891e-12
-7.68991e-12
3.34266e-12
-8.61906e-12
3.61625e-12
-9.60505e-12
3.88771e-12
-1.06483e-11
4.15176e-12
-1.17495e-11
4.40588e-12
-1.29101e-11
4.65063e-12
-1.41296e-11
4.88224e-12
-1.54082e-11
5.09931e-12
-1.67397e-11
5.29675e-12
-1.81228e-11
5.47682e-12
-1.95522e-11
5.63687e-12
-2.10231e-11
5.7764e-12
-2.25283e-11
5.88566e-12
-2.4061e-11
5.97134e-12
-2.56144e-11
6.031e-12
-2.71783e-11
6.05969e-12
-2.87487e-11
6.05985e-12
-3.03155e-11
6.02935e-12
-3.18686e-11
5.96624e-12
-3.34031e-11
5.87635e-12
-3.491e-11
5.75503e-12
-3.63801e-11
5.60418e-12
-3.78052e-11
5.42415e-12
-3.91779e-11
5.21434e-12
-4.04931e-11
4.97954e-12
-4.17408e-11
4.71823e-12
-4.29152e-11
4.43245e-12
-4.40109e-11
4.12404e-12
-4.50216e-11
3.79448e-12
-4.59419e-11
3.44432e-12
-4.67657e-11
3.07283e-12
-4.74842e-11
2.68186e-12
-4.80933e-11
2.27416e-12
-4.85899e-11
1.85278e-12
-4.89704e-11
1.41934e-12
-4.92323e-11
9.75928e-13
-4.93724e-11
5.25154e-13
-4.93768e-11
7.1832e-14
-4.92641e-11
-3.8383e-13
-4.90281e-11
-8.39371e-13
-4.86687e-11
-1.29118e-12
-4.81874e-11
-1.73614e-12
-4.75899e-11
-2.17333e-12
-4.68845e-11
-2.5981e-12
-4.60711e-11
-3.00964e-12
-4.51582e-11
-3.40893e-12
-4.41564e-11
-3.79033e-12
-4.3071e-11
-4.14946e-12
-4.19102e-11
-4.48876e-12
-4.06793e-11
-4.80835e-12
-3.9383e-11
-5.10391e-12
-3.80306e-11
-5.37171e-12
-3.66279e-11
-5.60536e-12
-3.51833e-11
-5.81096e-12
-3.36955e-11
-5.98652e-12
-3.21636e-11
-6.14083e-12
-3.05921e-11
-6.268e-12
-2.89846e-11
-6.36597e-12
-2.73422e-11
-6.44488e-12
-2.56768e-11
-6.50685e-12
-2.39945e-11
-6.56625e-12
-2.22969e-11
-6.62929e-12
-2.05865e-11
-6.68671e-12
-1.88661e-11
-6.73823e-12
-1.71427e-11
-6.77952e-12
-1.54219e-11
-6.81466e-12
-1.37085e-11
-6.84591e-12
-1.20006e-11
-6.86967e-12
-1.02933e-11
-6.88188e-12
-8.5817e-12
-6.8796e-12
-6.86603e-12
-6.86844e-12
-5.14199e-12
-6.85084e-12
-3.41382e-12
-6.84011e-12
-1.69107e-12
-6.80908e-12
-6.79735e-12
-1.5237e-12
-1.40038e-11
7.16811e-13
3.97521e-12
1.94712e-12
4.32189e-12
2.3604e-12
3.34527e-12
2.359e-12
2.36017e-12
2.16791e-12
1.67793e-12
1.90326e-12
1.24001e-12
1.61744e-12
9.74834e-13
1.31115e-12
8.38454e-13
1.01426e-12
7.82143e-13
7.17734e-13
7.97866e-13
4.14996e-13
8.62808e-13
9.52913e-14
9.72515e-13
-2.40832e-13
1.09989e-12
-5.98816e-13
1.25656e-12
-9.91636e-13
1.4384e-12
-1.42417e-12
1.6428e-12
-1.89558e-12
1.86529e-12
-2.41199e-12
2.10941e-12
-2.97824e-12
2.36924e-12
-3.58448e-12
2.64501e-12
-4.24517e-12
2.94045e-12
-4.95549e-12
3.24486e-12
-5.7191e-12
3.56188e-12
-6.5381e-12
3.88834e-12
-7.41331e-12
4.2183e-12
-8.34635e-12
4.54942e-12
-9.33704e-12
4.87809e-12
-1.0388e-11
5.2021e-12
-1.15014e-11
5.51871e-12
-1.26761e-11
5.82501e-12
-1.39114e-11
6.11758e-12
-1.52055e-11
6.39364e-12
-1.65565e-11
6.64802e-12
-1.79605e-11
6.88124e-12
-1.94124e-11
7.08925e-12
-2.09066e-11
7.27123e-12
-2.24374e-11
7.41697e-12
-2.39972e-11
7.53141e-12
-2.55783e-11
7.61206e-12
-2.71737e-11
7.65528e-12
-2.87752e-11
7.66142e-12
-3.03757e-11
7.62962e-12
-3.19612e-11
7.55142e-12
-3.35286e-11
7.4432e-12
-3.50664e-11
7.29161e-12
-3.65661e-11
7.10277e-12
-3.80189e-11
6.87731e-12
-3.94186e-11
6.61454e-12
-4.0758e-11
6.31794e-12
-4.20303e-11
5.98916e-12
-4.32276e-11
5.62977e-12
-4.43438e-11
5.2411e-12
-4.53739e-11
4.82497e-12
-4.6313e-11
4.38305e-12
-4.71503e-11
3.91005e-12
-4.78831e-11
3.41602e-12
-4.85074e-11
2.89966e-12
-4.90186e-11
2.36383e-12
-4.94115e-11
1.81168e-12
-4.96834e-11
1.24714e-12
-4.98298e-11
6.7256e-13
-4.98322e-11
7.6016e-14
-4.97197e-11
-4.95968e-13
-4.94813e-11
-1.07766e-12
-4.91162e-11
-1.65653e-12
-4.86249e-11
-2.22726e-12
-4.8015e-11
-2.78404e-12
-4.72932e-11
-3.32108e-12
-4.64642e-11
-3.84016e-12
-4.55339e-11
-4.33996e-12
-4.45094e-11
-4.81364e-12
-4.33995e-11
-5.25738e-12
-4.22151e-11
-5.67228e-12
-4.09641e-11
-6.06204e-12
-3.96479e-11
-6.42145e-12
-3.82708e-11
-6.74873e-12
-3.68415e-11
-7.03397e-12
-3.53683e-11
-7.2841e-12
-3.38563e-11
-7.49975e-12
-3.23062e-11
-7.68999e-12
-3.07169e-11
-7.85458e-12
-2.90892e-11
-7.99368e-12
-2.74297e-11
-8.10488e-12
-2.57434e-11
-8.19464e-12
-2.40442e-11
-8.26647e-12
-2.23324e-11
-8.33731e-12
-2.06158e-11
-8.40399e-12
-1.88933e-11
-8.46113e-12
-1.71692e-11
-8.50261e-12
-1.54483e-11
-8.53418e-12
-1.37296e-11
-8.56002e-12
-1.20131e-11
-8.58253e-12
-1.02984e-11
-8.59823e-12
-8.57927e-12
-8.60051e-12
-6.85477e-12
-8.59401e-12
-5.1234e-12
-8.58373e-12
-3.39073e-12
-8.57285e-12
-1.66091e-12
-8.53794e-12
-8.45793e-12
-1.60751e-12
-1.23999e-11
-4.41469e-14
2.41008e-12
9.78212e-13
3.30015e-12
1.48686e-12
2.83634e-12
1.67677e-12
2.16932e-12
1.67637e-12
1.67777e-12
1.57174e-12
1.34463e-12
1.40961e-12
1.13688e-12
1.21724e-12
1.03016e-12
9.97433e-13
1.00098e-12
7.5754e-13
1.03714e-12
4.98499e-13
1.12192e-12
2.23796e-13
1.24766e-12
-8.20237e-14
1.40595e-12
-4.19083e-13
1.59345e-12
-7.92468e-13
1.81162e-12
-1.20395e-12
2.05477e-12
-1.65721e-12
2.31995e-12
-2.15384e-12
2.60795e-12
-2.7006e-12
2.91768e-12
-3.29208e-12
3.23745e-12
-3.93954e-12
3.58826e-12
-4.64076e-12
3.94628e-12
-5.39664e-12
4.31815e-12
-6.20915e-12
4.70142e-12
-7.08097e-12
5.09067e-12
-8.01381e-12
5.4826e-12
-9.00982e-12
5.87422e-12
-1.00703e-11
6.26259e-12
-1.11955e-11
6.64383e-12
-1.23843e-11
7.01367e-12
-1.36356e-11
7.36879e-12
-1.49484e-11
7.70652e-12
-1.63214e-11
8.02128e-12
-1.77499e-11
8.3101e-12
-1.9229e-11
8.56848e-12
-2.07531e-11
8.79519e-12
-2.23177e-11
8.98121e-12
-2.39146e-11
9.12756e-12
-2.55359e-11
9.23273e-12
-2.7171e-11
9.29035e-12
-2.88139e-11
9.30472e-12
-3.04535e-11
9.2691e-12
-3.20821e-11
9.17942e-12
-3.36877e-11
9.04822e-12
-3.52623e-11
8.86565e-12
-3.67978e-11
8.63738e-12
-3.82865e-11
8.36583e-12
-3.97188e-11
8.04748e-12
-4.10887e-11
7.6881e-12
-4.23897e-11
7.28987e-12
-4.36139e-11
6.85419e-12
-4.47566e-11
6.38465e-12
-4.58108e-11
5.87981e-12
-4.67762e-11
5.34832e-12
-4.76395e-11
4.77284e-12
-4.83971e-11
4.17393e-12
-4.90435e-11
3.54671e-12
-4.95732e-11
2.89348e-12
-4.99806e-11
2.21937e-12
-5.02618e-11
1.52876e-12
-5.04143e-11
8.25649e-13
-5.04219e-11
8.47655e-14
-5.03099e-11
-6.07963e-13
-5.00646e-11
-1.32382e-12
-4.9688e-11
-2.03452e-12
-4.9183e-11
-2.73242e-12
-4.85558e-11
-3.41177e-12
-4.7811e-11
-4.06591e-12
-4.69588e-11
-4.69236e-12
-4.60051e-11
-5.29492e-12
-4.49537e-11
-5.86579e-12
-4.38139e-11
-6.39768e-12
-4.25978e-11
-6.88844e-12
-4.13141e-11
-7.34628e-12
-3.99672e-11
-7.76955e-12
-3.85608e-11
-8.15342e-12
-3.71004e-11
-8.49424e-12
-3.55931e-11
-8.79153e-12
-3.40441e-11
-9.04912e-12
-3.24614e-11
-9.2744e-12
-3.08434e-11
-9.47229e-12
-2.91921e-11
-9.64299e-12
-2.75114e-11
-9.78506e-12
-2.58108e-11
-9.89492e-12
-2.40972e-11
-9.97901e-12
-2.23797e-11
-1.00536e-11
-2.06612e-11
-1.01231e-11
-1.89395e-11
-1.01832e-11
-1.72118e-11
-1.02299e-11
-1.5481e-11
-1.02635e-11
-1.37533e-11
-1.02885e-11
-1.20271e-11
-1.03078e-11
-1.03027e-11
-1.03236e-11
-8.57714e-12
-1.03267e-11
-6.84436e-12
-1.03241e-11
-5.10736e-12
-1.03184e-11
-3.37234e-12
-1.03068e-11
-1.63313e-12
-1.02777e-11
-1.00905e-11
-1.38374e-12
-1.10166e-11
-3.69959e-13
1.39307e-12
4.65217e-13
2.46441e-12
9.74105e-13
2.32788e-12
1.23885e-12
1.90494e-12
1.34323e-12
1.57339e-12
1.34289e-12
1.34453e-12
1.2735e-12
1.20532e-12
1.15698e-12
1.14546e-12
1.00423e-12
1.15271e-12
8.2199e-13
1.21892e-12
6.11016e-13
1.33286e-12
3.71268e-13
1.48729e-12
9.8655e-14
1.67803e-12
-2.09848e-13
1.90127e-12
-5.55652e-13
2.15726e-12
-9.40724e-13
2.44063e-12
-1.37008e-12
2.75086e-12
-1.84641e-12
3.08594e-12
-2.37205e-12
3.4445e-12
-2.95583e-12
3.82182e-12
-3.58287e-12
4.21558e-12
-4.2708e-12
4.63455e-12
-5.01697e-12
5.06487e-12
-5.82176e-12
5.50701e-12
-6.69025e-12
5.96014e-12
-7.62371e-12
6.4171e-12
-8.62365e-12
6.87503e-12
-9.69104e-12
7.33038e-12
-1.08262e-11
7.77879e-12
-1.20279e-11
8.21499e-12
-1.32964e-11
8.63693e-12
-1.46315e-11
9.04145e-12
-1.60299e-11
9.41965e-12
-1.74877e-11
9.76752e-12
-1.90018e-11
1.00818e-11
-2.05643e-11
1.03564e-11
-2.21715e-11
1.05871e-11
-2.38138e-11
1.07688e-11
-2.54827e-11
1.09009e-11
-2.71676e-11
1.09752e-11
-2.88599e-11
1.09977e-11
-3.05478e-11
1.09575e-11
-3.2225e-11
1.08561e-11
-3.38781e-11
1.07006e-11
-3.54983e-11
1.04857e-11
-3.7076e-11
1.02152e-11
-3.86053e-11
9.89507e-12
-4.0075e-11
9.51777e-12
-4.14793e-11
9.09337e-12
-4.28142e-11
8.62532e-12
-4.40749e-11
8.11492e-12
-4.52544e-11
7.56417e-12
-4.63458e-11
6.97157e-12
-4.73407e-11
6.34381e-12
-4.82362e-11
5.6685e-12
-4.90243e-11
4.96153e-12
-4.96971e-11
4.21942e-12
-5.02505e-11
3.44704e-12
-5.06775e-11
2.64739e-12
-5.09716e-11
1.82421e-12
-5.11303e-11
9.84379e-13
-5.11521e-11
1.05985e-13
-5.10359e-11
-7.24558e-13
-5.07798e-11
-1.5808e-12
-5.03909e-11
-2.42555e-12
-4.98696e-11
-3.25418e-12
-4.92195e-11
-4.06132e-12
-4.84481e-11
-4.83688e-12
-4.75634e-11
-5.57671e-12
-4.65782e-11
-6.28206e-12
-4.54937e-11
-6.95255e-12
-4.43161e-11
-7.5772e-12
-4.30579e-11
-8.14757e-12
-4.17319e-11
-8.67092e-12
-4.03445e-11
-9.15733e-12
-3.88987e-11
-9.59984e-12
-3.73968e-11
-9.99532e-12
-3.58442e-11
-1.03427e-11
-3.42518e-11
-1.06427e-11
-3.26274e-11
-1.08992e-11
-3.09762e-11
-1.11244e-11
-2.93015e-11
-1.1317e-11
-2.76044e-11
-1.14801e-11
-2.5895e-11
-1.16074e-11
-2.41744e-11
-1.17013e-11
-2.2449e-11
-1.17782e-11
-2.07221e-11
-1.18482e-11
-1.8991e-11
-1.19134e-11
-1.72531e-11
-1.19659e-11
-1.55111e-11
-1.20032e-11
-1.37726e-11
-1.20275e-11
-1.20376e-11
-1.2043e-11
-1.03062e-11
-1.20534e-11
-8.57625e-12
-1.20596e-11
-6.84126e-12
-1.20598e-11
-5.10111e-12
-1.20614e-11
-3.36093e-12
-1.20465e-11
-1.61254e-12
-1.20264e-11
-1.1703e-11
-1.12575e-12
-9.88943e-12
-4.23734e-13
6.89358e-13
2.38301e-13
1.80127e-12
6.87625e-13
1.87862e-12
9.73664e-13
1.61932e-12
1.13548e-12
1.41148e-12
1.20369e-12
1.27537e-12
1.20282e-12
1.20467e-12
1.14957e-12
1.19717e-12
1.05398e-12
1.24717e-12
9.222e-13
1.34998e-12
7.56726e-13
1.49767e-12
5.55504e-13
1.68758e-12
3.17243e-13
1.91519e-12
3.94063e-14
2.17832e-12
-2.74401e-13
2.47102e-12
-6.33807e-13
2.80077e-12
-1.03859e-12
3.15678e-12
-1.49211e-12
3.54054e-12
-1.99653e-12
3.94973e-12
-2.55593e-12
4.38177e-12
-3.17155e-12
4.83162e-12
-3.84316e-12
5.3066e-12
-4.57721e-12
5.79965e-12
-5.37576e-12
6.30679e-12
-6.23862e-12
6.82472e-12
-7.1694e-12
7.34964e-12
-8.17034e-12
7.87705e-12
-9.243e-12
8.40306e-12
-1.03878e-11
8.92289e-12
-1.16037e-11
9.43011e-12
-1.28919e-11
9.92464e-12
-1.42514e-11
1.04005e-11
-1.56801e-11
1.08475e-11
-1.71736e-11
1.12597e-11
-1.87277e-11
1.16341e-11
-2.0336e-11
1.19631e-11
-2.19945e-11
1.22443e-11
-2.36903e-11
1.24639e-11
-2.54153e-11
1.26257e-11
-2.71595e-11
1.27198e-11
-2.89089e-11
1.27483e-11
-3.06562e-11
1.27059e-11
-3.23902e-11
1.25901e-11
-3.40966e-11
1.24062e-11
-3.5766e-11
1.21549e-11
-3.73903e-11
1.18401e-11
-3.89694e-11
1.14746e-11
-4.04847e-11
1.10332e-11
-4.1935e-11
1.0544e-11
-4.33148e-11
1.00057e-11
-4.46193e-11
9.41969e-12
-4.58412e-11
8.78587e-12
-4.69763e-11
8.10621e-12
-4.80122e-11
7.38031e-12
-4.89488e-11
6.60641e-12
-4.97726e-11
5.78567e-12
-5.0478e-11
4.92478e-12
-5.10574e-11
4.02629e-12
-5.15062e-11
3.09599e-12
-5.18144e-11
2.13299e-12
-5.19831e-11
1.15307e-12
-5.20149e-11
1.37061e-13
-5.1893e-11
-8.4643e-13
-5.16266e-11
-1.84651e-12
-5.12211e-11
-2.83191e-12
-5.06794e-11
-3.79696e-12
-5.00038e-11
-4.73763e-12
-4.92006e-11
-5.64167e-12
-4.82803e-11
-6.49787e-12
-4.72525e-11
-7.31006e-12
-4.61253e-11
-8.07987e-12
-4.49034e-11
-8.79983e-12
-4.35944e-11
-9.45678e-12
-4.22153e-11
-1.005e-11
-4.07737e-11
-1.05985e-11
-3.92791e-11
-1.10971e-11
-3.77298e-11
-1.15475e-11
-3.61302e-11
-1.19397e-11
-3.44917e-11
-1.22796e-11
-3.28233e-11
-1.25656e-11
-3.11412e-11
-1.2806e-11
-2.94461e-11
-1.30156e-11
-2.77335e-11
-1.31928e-11
-2.60052e-11
-1.33348e-11
-2.42667e-11
-1.34413e-11
-2.25221e-11
-1.35234e-11
-2.07784e-11
-1.35915e-11
-1.90336e-11
-1.36571e-11
-1.72835e-11
-1.37147e-11
-1.55333e-11
-1.37543e-11
-1.37863e-11
-1.37761e-11
-1.20503e-11
-1.37853e-11
-1.0316e-11
-1.37866e-11
-8.5824e-12
-1.37898e-11
-6.84363e-12
-1.37962e-11
-5.1035e-12
-1.38021e-11
-3.36171e-12
-1.37892e-11
-1.61034e-12
-1.37778e-11
-1.33122e-11
-8.99192e-13
-8.98933e-12
-3.94944e-13
1.85435e-13
1.07792e-13
1.29791e-12
5.31544e-13
1.45443e-12
8.37261e-13
1.31329e-12
1.02875e-12
1.21932e-12
1.14382e-12
1.15908e-12
1.1953e-12
1.15165e-12
1.19443e-12
1.19655e-12
1.14886e-12
1.29139e-12
1.06349e-12
1.434e-12
9.40146e-13
1.61958e-12
7.77077e-13
1.84925e-12
5.75492e-13
2.11568e-12
3.34206e-13
2.41902e-12
4.5351e-14
2.75979e-12
-2.81886e-13
3.12828e-12
-6.5989e-13
3.5353e-12
-1.08788e-12
3.96923e-12
-1.56774e-12
4.43034e-12
-2.10391e-12
4.91854e-12
-2.70222e-12
5.43027e-12
-3.35712e-12
5.96186e-12
-4.07765e-12
6.52109e-12
-4.86448e-12
7.09538e-12
-5.71876e-12
7.68117e-12
-6.64569e-12
8.27819e-12
-7.64707e-12
8.87879e-12
-8.7244e-12
9.47965e-12
-9.87814e-12
1.00756e-11
-1.11094e-11
1.06607e-11
-1.24187e-11
1.12333e-11
-1.38052e-11
1.17861e-11
-1.52669e-11
1.23077e-11
-1.68013e-11
1.27924e-11
-1.84019e-11
1.32334e-11
-2.00633e-11
1.36234e-11
-2.17792e-11
1.39593e-11
-2.35378e-11
1.42222e-11
-2.53278e-11
1.44161e-11
-2.71382e-11
1.45313e-11
-2.89552e-11
1.45666e-11
-3.07694e-11
1.45212e-11
-3.2568e-11
1.4389e-11
-3.43375e-11
1.41753e-11
-3.6069e-11
1.38861e-11
-3.77532e-11
1.35246e-11
-3.93907e-11
1.31123e-11
-4.09596e-11
1.26017e-11
-4.24632e-11
1.20474e-11
-4.38955e-11
1.14385e-11
-4.52528e-11
1.07777e-11
-4.6527e-11
1.00602e-11
-4.77106e-11
9.2893e-12
-4.87931e-11
8.46274e-12
-4.97719e-11
7.58628e-12
-5.06362e-11
6.65072e-12
-5.13792e-11
5.66758e-12
-5.19914e-11
4.63846e-12
-5.24667e-11
3.57101e-12
-5.27952e-11
2.46147e-12
-5.29749e-11
1.33331e-12
-5.3015e-11
1.76922e-13
-5.28891e-11
-9.72557e-13
-5.26103e-11
-2.12443e-12
-5.21834e-11
-3.25802e-12
-5.16155e-11
-4.36497e-12
-5.09079e-11
-5.44664e-12
-5.00653e-11
-6.48604e-12
-4.90984e-11
-7.4653e-12
-4.80216e-11
-8.38595e-12
-4.68406e-11
-9.25936e-12
-4.55637e-11
-1.00784e-11
-4.4198e-11
-1.08221e-11
-4.27572e-11
-1.14922e-11
-4.12552e-11
-1.21009e-11
-3.9703e-11
-1.26486e-11
-3.81035e-11
-1.31476e-11
-3.64643e-11
-1.35796e-11
-3.47862e-11
-1.39547e-11
-3.30786e-11
-1.42711e-11
-3.13571e-11
-1.45314e-11
-2.96237e-11
-1.47494e-11
-2.78821e-11
-1.49346e-11
-2.61286e-11
-1.50886e-11
-2.43668e-11
-1.52026e-11
-2.26e-11
-1.52879e-11
-2.08328e-11
-1.53588e-11
-1.90698e-11
-1.54222e-11
-1.73082e-11
-1.54763e-11
-1.55509e-11
-1.55113e-11
-1.37991e-11
-1.55265e-11
-1.20562e-11
-1.55271e-11
-1.03212e-11
-1.55247e-11
-8.58597e-12
-1.55254e-11
-6.85041e-12
-1.55335e-11
-5.11489e-12
-1.55379e-11
-3.37467e-12
-1.55305e-11
-1.63209e-12
-1.55208e-11
-1.49456e-11
-7.06433e-13
-8.28318e-12
-3.26896e-13
-1.93064e-13
9.14125e-14
8.79655e-13
4.85285e-13
1.05996e-12
7.80975e-13
1.01671e-12
9.99583e-13
9.99739e-13
1.15108e-12
1.00656e-12
1.24531e-12
1.05629e-12
1.28929e-12
1.15123e-12
1.28834e-12
1.29069e-12
1.24597e-12
1.47455e-12
1.16343e-12
1.70045e-12
1.04114e-12
1.97035e-12
8.77205e-13
2.2789e-12
6.70293e-13
2.62544e-12
4.1811e-13
3.01152e-12
1.15964e-13
3.43013e-12
-2.29007e-13
3.88042e-12
-6.27636e-13
4.36847e-12
-1.08212e-12
4.8855e-12
-1.595e-12
5.43172e-12
-2.16825e-12
6.0035e-12
-2.80851e-12
6.60241e-12
-3.51305e-12
7.22682e-12
-4.28331e-12
7.86754e-12
-5.1288e-12
8.52836e-12
-6.0502e-12
9.20019e-12
-7.04981e-12
9.87783e-12
-8.12952e-12
1.05583e-11
-9.29143e-12
1.12367e-11
-1.05387e-11
1.19074e-11
-1.18709e-11
1.25648e-11
-1.32868e-11
1.32007e-11
-1.47854e-11
1.3805e-11
-1.63634e-11
1.43694e-11
-1.80161e-11
1.48857e-11
-1.97375e-11
1.53447e-11
-2.15193e-11
1.57407e-11
-2.3348e-11
1.60509e-11
-2.52134e-11
1.62823e-11
-2.71001e-11
1.64195e-11
-2.89962e-11
1.64639e-11
-3.08891e-11
1.64144e-11
-3.27648e-11
1.62646e-11
-3.46104e-11
1.6021e-11
-3.64158e-11
1.56914e-11
-3.81714e-11
1.52801e-11
-3.98738e-11
1.48148e-11
-4.15082e-11
1.42361e-11
-4.30753e-11
1.36145e-11
-4.45679e-11
1.29312e-11
-4.59791e-11
1.2189e-11
-4.73052e-11
1.13865e-11
-4.85396e-11
1.05242e-11
-4.96769e-11
9.59974e-12
-5.07063e-11
8.61536e-12
-5.16213e-11
7.56544e-12
-5.24091e-11
6.45468e-12
-5.30614e-11
5.29117e-12
-5.35647e-11
4.07542e-12
-5.39223e-11
2.81973e-12
-5.41187e-11
1.53107e-12
-5.41582e-11
2.17013e-13
-5.40306e-11
-1.10057e-12
-5.37404e-11
-2.41571e-12
-5.32894e-11
-3.70927e-12
-5.26859e-11
-4.96723e-12
-5.19371e-11
-6.19476e-12
-5.10455e-11
-7.37753e-12
-5.00212e-11
-8.489e-12
-4.88831e-11
-9.52455e-12
-4.76388e-11
-1.05023e-11
-4.63002e-11
-1.14177e-11
-4.48714e-11
-1.2252e-11
-4.33676e-11
-1.29979e-11
-4.18033e-11
-1.36664e-11
-4.01861e-11
-1.42662e-11
-3.85273e-11
-1.48016e-11
-3.68377e-11
-1.52703e-11
-3.5118e-11
-1.56771e-11
-3.33681e-11
-1.60161e-11
-3.16025e-11
-1.62972e-11
-2.983e-11
-1.65242e-11
-2.80496e-11
-1.6714e-11
-2.62641e-11
-1.68721e-11
-2.44708e-11
-1.69966e-11
-2.26762e-11
-1.70852e-11
-2.08834e-11
-1.71488e-11
-1.91012e-11
-1.72038e-11
-1.73284e-11
-1.7248e-11
-1.55647e-11
-1.72774e-11
-1.38098e-11
-1.72833e-11
-1.20613e-11
-1.72737e-11
-1.03236e-11
-1.72634e-11
-8.58657e-12
-1.72614e-11
-6.85626e-12
-1.72661e-11
-5.12892e-12
-1.72664e-11
-3.39636e-12
-1.72626e-11
-1.66996e-12
-1.7247e-11
-1.66159e-11
-5.54914e-13
-7.72888e-12
-2.32126e-13
-5.15227e-13
1.37985e-13
5.09809e-13
5.01076e-13
6.96435e-13
7.9667e-13
7.20339e-13
1.03566e-12
7.6013e-13
1.21731e-12
8.24454e-13
1.34793e-12
9.24947e-13
1.43174e-12
1.06607e-12
1.47208e-12
1.24853e-12
1.47112e-12
1.47375e-12
1.42945e-12
1.74095e-12
1.34688e-12
2.05232e-12
1.22133e-12
2.40394e-12
1.05134e-12
2.79465e-12
8.36172e-13
3.22574e-12
5.70516e-13
3.69522e-12
2.53733e-13
4.19733e-12
-1.13525e-13
4.73624e-12
-5.38505e-13
5.31077e-12
-1.0239e-12
5.91693e-12
-1.57387e-12
6.55329e-12
-2.18951e-12
7.21853e-12
-2.87484e-12
7.9134e-12
-3.63543e-12
8.62949e-12
-4.4686e-12
9.36215e-12
-5.37878e-12
1.01101e-11
-6.3724e-12
1.08707e-11
-7.45207e-12
1.16375e-11
-8.6228e-12
1.24071e-11
-9.88483e-12
1.31688e-11
-1.12399e-11
1.39188e-11
-1.26886e-11
1.46484e-11
-1.42271e-11
1.5343e-11
-1.58537e-11
1.59962e-11
-1.75633e-11
1.65956e-11
-1.93505e-11
1.71318e-11
-2.12036e-11
1.75935e-11
-2.31138e-11
1.79612e-11
-2.50651e-11
1.82346e-11
-2.70426e-11
1.83981e-11
-2.90322e-11
1.84541e-11
-3.10193e-11
1.84015e-11
-3.29874e-11
1.82326e-11
-3.49254e-11
1.79593e-11
-3.68202e-11
1.75867e-11
-3.86616e-11
1.71216e-11
-4.04368e-11
1.65903e-11
-4.21418e-11
1.59421e-11
-4.37702e-11
1.52436e-11
-4.5321e-11
1.44818e-11
-4.6791e-11
1.36576e-11
-4.8176e-11
1.27704e-11
-4.94687e-11
1.18175e-11
-5.06664e-11
1.07977e-11
-5.17531e-11
9.70138e-12
-5.27233e-11
8.53554e-12
-5.3569e-11
7.30018e-12
-5.42703e-11
5.99252e-12
-5.48206e-11
4.62651e-12
-5.52098e-11
3.20941e-12
-5.54274e-11
1.75006e-12
-5.54716e-11
2.61886e-13
-5.53412e-11
-1.23057e-12
-5.50331e-11
-2.72424e-12
-5.45515e-11
-4.19205e-12
-5.39029e-11
-5.61511e-12
-5.31033e-11
-6.99298e-12
-5.21514e-11
-8.32936e-12
-5.1061e-11
-9.57951e-12
-4.98486e-11
-1.07379e-11
-4.85301e-11
-1.18214e-11
-4.71183e-11
-1.28285e-11
-4.56167e-11
-1.37542e-11
-4.40426e-11
-1.45755e-11
-4.24039e-11
-1.53038e-11
-4.07173e-11
-1.59542e-11
-3.89937e-11
-1.65248e-11
-3.72411e-11
-1.70199e-11
-3.5469e-11
-1.74511e-11
-3.36751e-11
-1.78157e-11
-3.18591e-11
-1.81109e-11
-3.00362e-11
-1.83434e-11
-2.82126e-11
-1.85372e-11
-2.63928e-11
-1.8694e-11
-2.45709e-11
-1.8818e-11
-2.27501e-11
-1.89061e-11
-2.09344e-11
-1.89635e-11
-1.91343e-11
-1.9005e-11
-1.73481e-11
-1.90321e-11
-1.55746e-11
-1.90486e-11
-1.38149e-11
-1.9044e-11
-1.20614e-11
-1.9027e-11
-1.03182e-11
-1.90079e-11
-8.58252e-12
-1.89997e-11
-6.85554e-12
-1.89932e-11
-5.13952e-12
-1.8983e-11
-3.41916e-12
-1.89827e-11
-1.7129e-12
-1.89539e-11
-1.83279e-11
-4.34276e-13
-7.29471e-12
-1.3577e-13
-8.13656e-13
2.10587e-13
1.63507e-13
5.59455e-13
3.47434e-13
8.61874e-13
4.17796e-13
1.12054e-12
5.01525e-13
1.33098e-12
6.13988e-13
1.49573e-12
7.59523e-13
1.61742e-12
9.42941e-13
1.69809e-12
1.16621e-12
1.73836e-12
1.4323e-12
1.73798e-12
1.74082e-12
1.69611e-12
2.09383e-12
1.6103e-12
2.48896e-12
1.47938e-12
2.92429e-12
1.30183e-12
3.40214e-12
1.07431e-12
3.92228e-12
7.95049e-13
4.47678e-12
4.58862e-13
5.07273e-12
6.44034e-14
5.7052e-12
-3.90488e-13
6.37164e-12
-9.11497e-13
7.0745e-12
-1.50118e-12
7.80901e-12
-2.16179e-12
8.575e-12
-2.89811e-12
9.36642e-12
-3.71688e-12
1.0181e-11
-4.62077e-12
1.10137e-11
-5.6123e-12
1.18622e-11
-6.69514e-12
1.27203e-11
-7.86956e-12
1.35811e-11
-9.14522e-12
1.44436e-11
-1.05204e-11
1.5293e-11
-1.20001e-11
1.61277e-11
-1.35793e-11
1.69223e-11
-1.52564e-11
1.76735e-11
-1.70294e-11
1.83685e-11
-1.8889e-11
1.89908e-11
-2.0825e-11
1.9529e-11
-2.28305e-11
1.99667e-11
-2.48804e-11
2.02848e-11
-2.69665e-11
2.04845e-11
-2.90732e-11
2.05608e-11
-3.11722e-11
2.05009e-11
-3.32568e-11
2.03176e-11
-3.53044e-11
2.00075e-11
-3.72976e-11
1.95809e-11
-3.92239e-11
1.90485e-11
-4.10803e-11
1.84471e-11
-4.28529e-11
1.77156e-11
-4.45451e-11
1.69364e-11
-4.61571e-11
1.60938e-11
-4.76851e-11
1.51844e-11
-4.91281e-11
1.42113e-11
-5.04817e-11
1.31702e-11
-5.17521e-11
1.20685e-11
-5.29107e-11
1.08598e-11
-5.39564e-11
9.58182e-12
-5.48689e-11
8.21361e-12
-5.56319e-11
6.75547e-12
-5.62389e-11
5.23357e-12
-5.66681e-11
3.638e-12
-5.69143e-11
1.99641e-12
-5.69688e-11
3.15711e-13
-5.68337e-11
-1.36533e-12
-5.65035e-11
-3.0526e-12