/*--------------------------------*- C++ -*----------------------------------*\
| =========                 |                                                 |
| \\      /  F ield         | OpenFOAM: The Open Source CFD Toolbox           |
|  \\    /   O peration     | Version:  2312                                  |
|   \\  /    A nd           | Website:  www.openfoam.com                      |
|    \\/     M anipulation  |                                                 |
\*---------------------------------------------------------------------------*/
FoamFile
{
    version     2.0;
    format      ascii;
    arch        "LSB;label=32;scalar=64";
    class       volScalarField;
    location    "0.05";
    object      p;
}
// * * * * * * * * * * * * * * * * * * * * * * * * * * * * * * * * * * * * * //

dimensions      [1 -1 -2 0 0 0 0];

internalField   nonuniform List<scalar> 
10000
(
0
0.000134213
0.000205288
0.000232695
0.000253238
0.000273036
0.000291591
0.000313062
0.000340311
0.000376072
0.000423342
0.000485056
0.000564214
0.000663914
0.000787611
0.000938922
0.00112151
0.00133975
0.00159757
0.00189889
0.00224639
0.00264345
0.0030934
0.00359931
0.0041638
0.00478893
0.00547606
0.00622572
0.00703748
0.00790996
0.00884074
0.0098262
0.0108615
0.0119405
0.0130557
0.0141983
0.0153583
0.0165245
0.0176845
0.018825
0.0199322
0.0209915
0.0219881
0.0229073
0.0237346
0.024456
0.0250585
0.0255301
0.0258605
0.0260409
0.0260643
0.0259258
0.0256222
0.025153
0.0245192
0.0237242
0.0227734
0.0216738
0.0204341
0.0190645
0.0175759
0.0159805
0.0142909
0.0125203
0.0106821
0.00878945
0.00685538
0.00489252
0.00291291
0.000927902
-0.00105186
-0.00301653
-0.00495695
-0.00686495
-0.00873322
-0.0105554
-0.0123259
-0.0140395
-0.0156923
-0.0172805
-0.0188012
-0.020252
-0.0216308
-0.022936
-0.0241664
-0.025321
-0.0263992
-0.0274004
-0.0283243
-0.0291709
-0.0299401
-0.0306319
-0.0312468
-0.0317846
-0.0322457
-0.0326302
-0.0329384
-0.0331703
-0.0333256
-0.0334049
0.000134207
0.000247922
0.000261872
0.000277683
0.000279024
0.000287034
0.000297269
0.000313422
0.000336442
0.000368242
0.00041221
0.00047092
0.000546875
0.0006434
0.000763845
0.000912123
0.0010919
0.00130655
0.00155999
0.00185596
0.00219885
0.00259212
0.00303896
0.00354237
0.00410501
0.00472901
0.00541579
0.00616595
0.00697917
0.0078542
0.00878868
0.00977908
0.0108206
0.0119071
0.013031
0.0141836
0.0153548
0.0165332
0.0177064
0.0188608
0.0199824
0.0210563
0.0220676
0.0230012
0.0238422
0.0245765
0.0251907
0.0256727
0.0260118
0.026199
0.0262273
0.0260916
0.0257888
0.0253181
0.0246808
0.0238805
0.0229225
0.0218142
0.0205644
0.0191834
0.0176827
0.0160744
0.0143715
0.0125875
0.0107358
0.00883016
0.00688339
0.0049083
0.00291707
0.000921234
-0.00106844
-0.00304217
-0.00499089
-0.00690642
-0.00878135
-0.0106093
-0.0123848
-0.0141028
-0.0157593
-0.0173505
-0.0188737
-0.0203266
-0.0217072
-0.0230137
-0.0242452
-0.0254004
-0.0264791
-0.0274807
-0.0284048
-0.0292514
-0.0300205
-0.0307123
-0.0313269
-0.0318646
-0.0323256
-0.03271
-0.033018
-0.0332496
-0.033405
-0.0334843
0.000205271
0.000261862
0.000264437
0.000274497
0.000275317
0.000278216
0.00028646
0.000298723
0.000316889
0.000343955
0.000382613
0.000435258
0.000504658
0.000594443
0.000708398
0.000849562
0.00102179
0.00122896
0.00147507
0.00176412
0.00210016
0.00248695
0.00292797
0.00342647
0.00398532
0.00460684
0.00529264
0.00604356
0.00685952
0.00773945
0.00868116
0.00968126
0.010735
0.0118363
0.0129778
0.0141505
0.0153441
0.0165471
0.0177467
0.0189291
0.0200796
0.0211831
0.0222239
0.0231865
0.0240554
0.0248157
0.0254536
0.0259566
0.0263133
0.0265146
0.0265529
0.026423
0.0261217
0.0256483
0.0250042
0.0241931
0.0232208
0.022095
0.0208249
0.0194213
0.0178962
0.0162622
0.0145329
0.012722
0.0108436
0.00891165
0.0069395
0.00494015
0.00292597
0.000908633
-0.00110092
-0.00309272
-0.00505783
-0.00698809
-0.00887622
-0.0107157
-0.012501
-0.0142275
-0.0158912
-0.0174887
-0.019017
-0.0204739
-0.0218576
-0.0231667
-0.0243999
-0.0255565
-0.0266361
-0.0276382
-0.0285626
-0.0294093
-0.0301783
-0.0308698
-0.0314841
-0.0320216
-0.0324821
-0.0328661
-0.0331738
-0.0334051
-0.0335604
-0.0336396
0.000232663
0.000277655
0.000274481
0.000279503
0.000275854
0.000273755
0.000274548
0.000279537
0.000291158
0.000310645
0.000340453
0.000383803
0.000443753
0.000522848
0.000626089
0.000756161
0.000917003
0.00111269
0.00134741
0.00162537
0.00195074
0.00232752
0.00275952
0.00325031
0.00380306
0.00442042
0.00510438
0.00585609
0.00667582
0.0075628
0.0085151
0.00952953
0.0106016
0.0117252
0.012893
0.0140959
0.0153235
0.0165638
0.0178035
0.0190284
0.0202231
0.0213716
0.0224575
0.0234643
0.0243757
0.0251759
0.0258502
0.0263852
0.026769
0.0269917
0.0270453
0.0269243
0.0266254
0.0261479
0.0254935
0.0246661
0.023672
0.0225195
0.0212185
0.0197805
0.0182182
0.0165451
0.0147755
0.012924
0.0110051
0.00903336
0.00702274
0.00498672
0.002938
0.000888412
-0.00115098
-0.00317002
-0.00515968
-0.00711184
-0.00901936
-0.0108759
-0.012676
-0.0144151
-0.0160895
-0.0176959
-0.0192317
-0.0206945
-0.0220828
-0.0233954
-0.0246313
-0.0257898
-0.0268708
-0.0278735
-0.0287981
-0.0296446
-0.0304133
-0.0311045
-0.0317184
-0.0322553
-0.0327153
-0.0330987
-0.0334058
-0.0336367
-0.0337917
-0.0338707
0.000253183
0.000278976
0.00027528
0.000275833
0.00026849
0.000261696
0.000255808
0.000253051
0.000255492
0.000264975
0.000283976
0.000315429
0.000362465
0.000428311
0.000516967
0.000632007
0.000777433
0.0009575
0.00117662
0.00143928
0.00174992
0.00211286
0.0025323
0.00301221
0.00355621
0.00416743
0.00484832
0.00560051
0.00642472
0.00732059
0.0082866
0.00931989
0.0104162
0.0115696
0.0127726
0.0140162
0.0152894
0.01658
0.0178741
0.0191566
0.0204112
0.021621
0.0227684
0.0238355
0.024805
0.0256597
0.0263838
0.0269626
0.0273834
0.0276353
0.0277099
0.0276011
0.0273056
0.0268226
0.026154
0.0253043
0.0242804
0.0230914
0.0217482
0.0202633
0.0186503
0.0169241
0.0150998
0.013193
0.0112193
0.00919387
0.00713136
0.00504587
0.0029506
0.000857783
-0.00122143
-0.00327681
-0.00529918
-0.00728046
-0.00921354
-0.0110925
-0.0129121
-0.0146678
-0.0163562
-0.017974
-0.0195192
-0.0209897
-0.0223839
-0.0237009
-0.0249401
-0.0261009
-0.0271832
-0.0281866
-0.0291113
-0.0299577
-0.030726
-0.0314166
-0.0320297
-0.0325656
-0.0330249
-0.0334075
-0.0337139
-0.0339444
-0.034099
-0.0341779
0.000272956
0.00028696
0.000278152
0.000273708
0.00026167
0.000248511
0.00023443
0.000221886
0.000212943
0.000209827
0.000215038
0.000231479
0.000262353
0.000311099
0.000381479
0.000477465
0.000603245
0.00076333
0.000962424
0.00120533
0.00149684
0.0018417
0.00224459
0.00271001
0.00324218
0.00384479
0.0045209
0.00527277
0.0061017
0.00700792
0.00799044
0.00904683
0.0101731
0.0113636
0.0126109
0.0139057
0.0152368
0.0165913
0.0179547
0.0193107
0.020642
0.0219303
0.0231566
0.0243014
0.0253456
0.0262706
0.0270588
0.0276942
0.0281627
0.0284525
0.0285542
0.0284612
0.0281698
0.0276796
0.0269926
0.026114
0.0250517
0.0238156
0.0224179
0.0208726
0.0191947
0.0174002
0.0155059
0.0135286
0.0114849
0.00939108
0.00726275
0.00511464
0.00296058
0.000813246
-0.00131587
-0.00341663
-0.00547974
-0.00749732
-0.00946227
-0.0113689
-0.0132123
-0.0149882
-0.0166934
-0.0183252
-0.0198816
-0.021361
-0.0227622
-0.0240844
-0.0253271
-0.0264904
-0.027574
-0.0285781
-0.0295029
-0.0303488
-0.0311164
-0.0318058
-0.0324179
-0.0329527
-0.0334109
-0.0337926
-0.0340981
-0.0343278
-0.0344819
-0.0345606
0.000291482
0.000297165
0.000286367
0.000274471
0.000255752
0.000234401
0.000210529
0.000186442
0.000164195
0.000146089
0.000134726
0.000133065
0.000144377
0.000172208
0.000220382
0.000293069
0.000394757
0.00053025
0.000704578
0.0009229
0.00119045
0.00151251
0.00189434
0.00234113
0.00285776
0.00344867
0.00411766
0.00486775
0.00570105
0.00661855
0.00761989
0.00870323
0.00986502
0.0110999
0.0124004
0.0137573
0.0151588
0.0165915
0.0180398
0.0194863
0.0209123
0.0222978
0.0236218
0.0248631
0.0260003
0.0270127
0.0278809
0.0285868
0.0291149
0.0294517
0.0295871
0.0295137
0.0292275
0.028728
0.0280179
0.0271032
0.0259927
0.0246979
0.0232325
0.021612
0.0198534
0.0179746
0.0159938
0.0139295
0.0117998
0.00962221
0.00741345
0.00518913
0.00296377
0.000750415
-0.00143895
-0.00359418
-0.00570604
-0.0077668
-0.00976961
-0.0117089
-0.0135801
-0.0153795
-0.0171043
-0.018752
-0.0203212
-0.0218105
-0.0232193
-0.024547
-0.0257936
-0.0269592
-0.0280442
-0.0290487
-0.0299733
-0.0308184
-0.0315847
-0.0322727
-0.0328832
-0.0334166
-0.0338733
-0.0342537
-0.034558
-0.0347869
-0.0349404
-0.0350188
0.000312919
0.000313282
0.000298595
0.00027943
0.000252965
0.000221825
0.00018641
0.000148813
0.000111031
7.54048e-05
4.46097e-05
2.16543e-05
9.8597e-06
1.28648e-05
3.46597e-05
7.96011e-05
0.0001525
0.000258475
0.000402898
0.000591347
0.00082959
0.00112354
0.0014792
0.0019025
0.00239915
0.00297445
0.00363315
0.00437924
0.00521582
0.00614478
0.00716662
0.00828023
0.00948265
0.0107689
0.0121318
0.0135618
0.0150468
0.0165726
0.0181224
0.0196777
0.0212178
0.0227207
0.0241633
0.0255217
0.0267719
0.0278908
0.0288563
0.0296483
0.0302489
0.0306432
0.0308195
0.0307697
0.0304895
0.0299785
0.0292398
0.0282807
0.0271113
0.0257449
0.024197
0.0224854
0.0206291
0.0186481
0.0165631
0.0143942
0.0121613
0.00988366
0.00757916
0.00526443
0.00295483
0.000663797
-0.00159637
-0.0038152
-0.00598365
-0.00809418
-0.0101403
-0.0121169
-0.0140196
-0.0158455
-0.0175921
-0.0192574
-0.0208405
-0.0223406
-0.0237572
-0.0250907
-0.0263411
-0.0275089
-0.0285947
-0.0295992
-0.030523
-0.0313667
-0.0321312
-0.0328172
-0.0334257
-0.0339572
-0.0344121
-0.0347908
-0.0350937
-0.0353214
-0.0354742
-0.0355522
0.000340131
0.000336262
0.000316718
0.000291024
0.000255373
0.000212847
0.000164127
0.000110996
5.54022e-05
-3.11629e-07
-5.34517e-05
-0.000100991
-0.000139564
-0.000165418
-0.000174377
-0.00016182
-0.000122721
-5.15963e-05
5.73034e-05
0.000210057
0.000413055
0.000672948
0.000996537
0.00139064
0.00186192
0.00241675
0.00306101
0.00379991
0.00463768
0.00557736
0.00662052
0.00776702
0.00901468
0.0103591
0.0117932
0.0133076
0.0148897
0.0165243
0.0181937
0.0198774
0.0215529
0.0231955
0.0247793
0.0262775
0.0276631
0.0289097
0.0299921
0.0308874
0.0315751
0.0320383
0.0322635
0.0322418
0.0319684
0.031443
0.0306697
0.0296568
0.0284164
0.0269637
0.0253169
0.0234962
0.0215234
0.019421
0.0172123
0.0149198
0.0125656
0.0101704
0.00775401
0.00533406
0.00292675
0.000546226
-0.00179511
-0.00408654
-0.00631913
-0.00848577
-0.0105803
-0.0125983
-0.014536
-0.0163907
-0.0181607
-0.0198449
-0.0214426
-0.0229537
-0.0243785
-0.0257175
-0.0269712
-0.0281407
-0.0292268
-0.0302305
-0.0311526
-0.0319943
-0.0327564
-0.0334398
-0.0340455
-0.0345743
-0.0350268
-0.0354034
-0.0357047
-0.0359311
-0.0360829
-0.0361604
0.000375859
0.000368035
0.000343753
0.000310469
0.000264818
0.000209693
0.000145984
7.53317e-05
-3.49149e-07
-7.87575e-05
-0.00015723
-0.00023274
-0.000301866
-0.000360733
-0.000404987
-0.000429785
-0.000429821
-0.000399328
-0.000332093
-0.00022145
-6.03147e-05
0.000158754
0.000443453
0.000801618
0.00124107
0.00176944
0.00239396
0.00312122
0.00395687
0.00490537
0.00596964
0.00715074
0.0084475
0.00985625
0.0113705
0.0129806
0.0146738
0.0164342
0.0182423
0.0200758
0.0219097
0.0237166
0.025467
0.0271305
0.0286764
0.0300744
0.0312957
0.0323136
0.0331047
0.0336495
0.0339327
0.0339439
0.0336779
0.0331348
0.0323196
0.0312422
0.0299168
0.0283615
0.0265973
0.0246475
0.0225372
0.0202923
0.0179387
0.0155021
0.0130068
0.0104757
0.00793027
0.00538969
0.0028709
0.000388864
-0.00204384
-0.00441663
-0.00672067
-0.00894921
-0.0110969
-0.0131598
-0.0151349
-0.0170205
-0.0188151
-0.0205185
-0.0221312
-0.0236532
-0.0250855
-0.0264294
-0.0276858
-0.0288559
-0.0299412
-0.0309432
-0.0318628
-0.0327014
-0.0334601
-0.0341401
-0.0347425
-0.0352679
-0.0357173
-0.0360913
-0.0363905
-0.0366154
-0.0367661
-0.0368429
0.000423089
0.000411958
0.000382374
0.000340236
0.000283779
0.000214864
0.000134582
4.44979e-05
-5.35278e-05
-0.000157268
-0.000264113
-0.000371041
-0.000474572
-0.000570734
-0.000655035
-0.000722452
-0.000767416
-0.000783791
-0.000764872
-0.000703423
-0.000591569
-0.000421022
-0.000183078
0.000131277
0.000531195
0.00102576
0.00162377
0.00233344
0.00316218
0.00411617
0.00519997
0.00641617
0.0077649
0.00924351
0.0108462
0.0125636
0.0143826
0.0162862
0.0182537
0.0202603
0.0222781
0.0242763
0.0262215
0.028079
0.0298134
0.0313896
0.0327744
0.033937
0.03485
0.0354908
0.0358419
0.0358912
0.0356331
0.035068
0.0342022
0.0330478
0.0316216
0.0299448
0.0280421
0.0259409
0.02367
0.021259
0.0187376
0.0161344
0.0134769
0.0107905
0.00809813
0.00542092
0.00277675
0.000181116
-0.00235318
-0.00481562
-0.00719799
-0.00949376
-0.0116984
-0.0138091
-0.0158234
-0.0177408
-0.0195606
-0.0212833
-0.0229101
-0.0244424
-0.0258813
-0.0272288
-0.0284863
-0.0296559
-0.0307392
-0.0317381
-0.0326539
-0.0334884
-0.0342427
-0.0349182
-0.0355162
-0.0360376
-0.0364833
-0.0368542
-0.0371509
-0.0373737
-0.037523
-0.0375992
0.000484766
0.000470632
0.000434982
0.000383545
0.000315192
0.000231267
0.000132882
2.15039e-05
-0.000101106
-0.000232817
-0.000371079
-0.000512884
-0.000654735
-0.000792616
-0.000921955
-0.00103757
-0.00113362
-0.00120358
-0.00124025
-0.00123572
-0.00118151
-0.0010682
-0.000886041
-0.00062468
-0.000273471
0.000178319
0.000741304
0.00142569
0.00224092
0.00319526
0.00429529
0.00554548
0.0069477
0.00850071
0.0101997
0.0120357
0.0139954
0.0160609
0.0182097
0.0204147
0.0226446
0.0248644
0.0270361
0.0291198
0.0310744
0.0328595
0.0344362
0.0357684
0.0368243
0.0375774
0.0380073
0.0381003
0.0378501
0.0372577
0.0363309
0.0350845
0.0335387
0.0317188
0.029654
0.0273759
0.0249184
0.0223155
0.0196009
0.0168072
0.0139649
0.0111025
0.00824494
0.00541476
0.00263107
-8.99808e-05
-0.00273566
-0.00529557
-0.0077622
-0.0101298
-0.0123946
-0.0145548
-0.0166093
-0.0185586
-0.020403
-0.0221442
-0.023784
-0.0253247
-0.0267685
-0.0281178
-0.0293749
-0.0305421
-0.0316217
-0.0326159
-0.0335264
-0.0343552
-0.0351038
-0.0357738
-0.0363664
-0.036883
-0.0373244
-0.0376915
-0.0379849
-0.0382053
-0.038353
-0.0384283
0.000563889
0.000546553
0.000504351
0.000443458
0.00036219
0.000262103
0.000144156
9.67169e-06
-0.000139716
-0.00030198
-0.000474648
-0.000654772
-0.00083891
-0.00102308
-0.00120265
-0.0013723
-0.00152594
-0.00165666
-0.0017568
-0.00181785
-0.00183041
-0.0017842
-0.00166819
-0.00147052
-0.00117892
-0.000780757
-0.000263314
0.000385928
0.00117883
0.00212613
0.0032369
0.00451799
0.0059735
0.00760404
0.00940615
0.0113716
0.0134872
0.015734
0.0180878
0.0205188
0.0229917
0.025467
0.0279009
0.0302474
0.0324588
0.0344879
0.0362889
0.0378195
0.0390423
0.0399261
0.0404471
0.0405896
0.0403466
0.0397198
0.0387194
0.0373631
0.0356757
0.0336874
0.0314326
0.028949
0.0262757
0.0234521
0.0205167
0.0175066
0.0144558
0.0113958
0.0083542
0.00535486
0.00241786
-0.000440081
-0.0032062
-0.00587056
-0.00842636
-0.010869
-0.0131959
-0.0154065
-0.017501
-0.0194811
-0.0213487
-0.0231064
-0.0247572
-0.026304
-0.0277502
-0.029099
-0.0303532
-0.0315159
-0.0325897
-0.0335772
-0.0344806
-0.0353022
-0.0360436
-0.0367067
-0.0372928
-0.0378034
-0.0382396
-0.0386022
-0.0388919
-0.0391094
-0.0392552
-0.0393296
0.000663558
0.000643045
0.000594095
0.00052252
0.000428003
0.000310815
0.000171951
1.26413e-05
-0.000165605
-0.000360883
-0.000570844
-0.000792688
-0.00102311
-0.0012582
-0.00149334
-0.00172308
-0.0019411
-0.00214025
-0.00231239
-0.00244841
-0.00253805
-0.00256998
-0.00253181
-0.00241034
-0.00219117
-0.00185966
-0.00140065
-0.000798961
-3.99071e-05
0.000890212
0.00200352
0.00330988
0.00481618
0.00652545
0.00843608
0.0105411
0.0128275
0.0152758
0.01786
0.020547
0.0232976
0.0260663
0.0288032
0.0314546
0.0339648
0.0362784
0.0383414
0.0401037
0.0415211
0.0425567
0.0431825
0.0433804
0.0431428
0.0424724
0.0413823
0.0398944
0.0380387
0.0358518
0.0333749
0.0306524
0.0277302
0.024654
0.0214678
0.0182135
0.0149294
0.0116499
0.00840501
0.0052205
0.00211726
-0.000887891
-0.00378229
-0.00655661
-0.00920523
-0.0117248
-0.0141143
-0.0163744
-0.0185074
-0.0205161
-0.0224041
-0.0241753
-0.0258339
-0.0273838
-0.0288293
-0.0301746
-0.0314232
-0.0325786
-0.0336441
-0.0346226
-0.0355168
-0.0363291
-0.0370617
-0.0377164
-0.0382947
-0.0387982
-0.0392281
-0.0395855
-0.0398709
-0.0400851
-0.0402286
-0.0403018
0.000787225
0.000763458
0.00070802
0.000625727
0.000516625
0.000381162
0.000220094
3.44046e-05
-0.000174596
-0.000405167
-0.000655176
-0.000922058
-0.00120272
-0.00149337
-0.00178944
-0.00208544
-0.00237498
-0.00265065
-0.00290396
-0.00312517
-0.00330321
-0.00342567
-0.00347883
-0.00344769
-0.00331602
-0.00306669
-0.00268178
-0.00214311
-0.00143267
-0.000533201
0.000571139
0.00189391
0.00344546
0.00523197
0.00725441
0.00950763
0.0119795
0.0146501
0.0174917
0.020468
0.0235347
0.0266402
0.0297267
0.0327317
0.0355898
0.0382354
0.0406045
0.0426375
0.0442818
0.0454935
0.0462396
0.0464989
0.0462632
0.045537
0.0443367
0.0426899
0.0406334
0.0382116
0.0354743
0.0324742
0.0292651
0.0259002
0.0224302
0.018902
0.0153585
0.0118372
0.00837074
0.004986
0.00170472
-0.00145617
-0.00448472
-0.00737274
-0.0101157
-0.012712
-0.0151628
-0.0174703
-0.0196385
-0.0216722
-0.0235764
-0.0253568
-0.0270188
-0.0285678
-0.0300088
-0.0313467
-0.0325861
-0.0337311
-0.0347854
-0.0357523
-0.036635
-0.0374361
-0.0381578
-0.0388023
-0.0393713
-0.0398665
-0.0402892
-0.0406403
-0.0409208
-0.0411313
-0.0412723
-0.0413443
0.00093851
0.000911708
0.000849157
0.000755771
0.000631639
0.000477122
0.000292757
7.93224e-05
-0.000162065
-0.000429991
-0.000722618
-0.0010377
-0.00137239
-0.00172313
-0.00208547
-0.00245403
-0.00282243
-0.00318315
-0.00352736
-0.0038448
-0.00412364
-0.00435043
-0.00451003
-0.00458565
-0.00455889
-0.00440997
-0.00411809
-0.00366144
-0.00301822
-0.00216688
-0.00108715
0.000239006
0.00182634
0.0036851
0.00581982
0.00822801
0.0108991
0.0138133
0.0169412
0.0202431
0.0236695
0.0271613
0.0306516
0.0340672
0.037331
0.040365
0.0430927
0.0454429
0.0473523
0.0487685
0.0496524
0.0499792
0.0497401
0.0489415
0.0476048
0.0457648
0.043467
0.040766
0.0377218
0.0343979
0.0308577
0.027163
0.0233721
0.0195381
0.0157082
0.0119231
0.00821745
0.00461946
0.00115079
-0.00217218
-0.00533814
-0.00834069
-0.0111772
-0.013848
-0.0163561
-0.0187063
-0.0209046
-0.0229578
-0.0248728
-0.0266567
-0.0283168
-0.0298595
-0.031291
-0.0326173
-0.0338434
-0.0349742
-0.036014
-0.0369663
-0.0378348
-0.0386221
-0.039331
-0.0399636
-0.0405219
-0.0410074
-0.0414217
-0.0417659
-0.0420408
-0.0422469
-0.0423849
-0.0424554
0.00112107
0.00109146
0.00102136
0.000916593
0.000777044
0.000602883
0.000394425
0.000152202
-0.000122982
-0.000430046
-0.000767602
-0.00113377
-0.00152604
-0.00194118
-0.00237502
-0.00282245
-0.00327721
-0.00373178
-0.00417715
-0.00460264
-0.00499578
-0.00534208
-0.00562502
-0.00582598
-0.00592427
-0.00589732
-0.00572089
-0.00536934
-0.00481652
-0.00403571
-0.00300136
-0.00169001
-8.1391e-05
0.0018401
0.00408371
0.00665079
0.00953328
0.0127124
0.0161575
0.0198256
0.0236611
0.0275966
0.0315543
0.0354482
0.039187
0.042677
0.0458267
0.0485502
0.0507709
0.0524259
0.0534682
0.0538687
0.0536179
0.0527253
0.0512185
0.0491415
0.0465516
0.0435158
0.0401079
0.036404
0.0324798
0.0284075
0.024254
0.020079
0.0159343
0.0118638
0.00790346
0.00408152
0.000419415
-0.00306808
-0.00637125
-0.00948575
-0.0124114
-0.0151508
-0.0177099
-0.0200957
-0.0223166
-0.0243817
-0.0263002
-0.0280807
-0.0297321
-0.0312623
-0.0326786
-0.0339879
-0.0351961
-0.0363084
-0.0373297
-0.0382642
-0.0391154
-0.0398866
-0.0405805
-0.0411992
-0.041745
-0.0422197
-0.0426245
-0.0429607
-0.0432291
-0.0434304
-0.0435653
-0.0436342
0.0013393
0.0013061
0.00122852
0.00111227
0.000957098
0.000762954
0.000529905
0.000258164
-5.18706e-05
-0.000399563
-0.000783988
-0.00120374
-0.00165678
-0.00214033
-0.0026507
-0.00318317
-0.00373179
-0.00428919
-0.00484637
-0.00539244
-0.00591435
-0.00639673
-0.00682172
-0.00716892
-0.00741534
-0.0075354
-0.00750115
-0.00728261
-0.00684828
-0.00616659
-0.00520464
-0.00393275
-0.00232368
-0.000354915
0.00198905
0.00471499
0.00781888
0.011284
0.0150794
0.0191588
0.0234602
0.0279066
0.0324074
0.0368612
0.0411589
0.0451879
0.0488374
0.0520031
0.0545922
0.0565279
0.0577534
0.0582344
0.0579606
0.0569454
0.0552249
0.0528552
0.0499083
0.046468
0.042625
0.038472
0.0340995
0.0295924
0.0250278
0.0204728
0.0159837
0.0116065
0.00737792
0.0033251
-0.000532333
-0.00418215
-0.00761746
-0.0108366
-0.0138426
-0.0166412
-0.0192411
-0.0216522
-0.0238857
-0.025953
-0.0278655
-0.029634
-0.0312687
-0.0327789
-0.0341733
-0.0354595
-0.0366444
-0.0377337
-0.0387323
-0.0396452
-0.0404761
-0.0412282
-0.0419047
-0.0425078
-0.0430395
-0.0435016
-0.0438958
-0.0442231
-0.0444844
-0.0446803
-0.0448117
-0.0448789
0.00159712
0.00155954
0.00147463
0.00134698
0.00117621
0.000962044
0.000704229
0.000402583
5.70257e-05
-0.000332332
-0.00076507
-0.00124041
-0.00175692
-0.00231247
-0.00290401
-0.00352738
-0.00417715
-0.00484637
-0.00552626
-0.00620591
-0.00687192
-0.00750822
-0.00809581
-0.00861265
-0.0090334
-0.00932936
-0.00946865
-0.0094165
-0.00913581
-0.00858787
-0.00773318
-0.00653339
-0.0049529
-0.00295998
-0.000531012
0.00234833
0.00568016
0.00945158
0.0136324
0.0181738
0.023007
0.028044
0.0331793
0.0382924
0.0432523
0.0479232
0.0521697
0.0558642
0.0588928
0.0611617
0.0626013
0.0631707
0.0628587
0.0616841
0.0596939
0.0569597
0.0535733
0.0496397
0.0452719
0.0405832
0.0356831
0.0306721
0.0256391
0.0206592
0.0157933
0.0110885
0.00658061
0.00229415
-0.00175509
-0.00555896
-0.00911505
-0.0124259
-0.0154981
-0.0183415
-0.0209679
-0.0233905
-0.0256233
-0.0276803
-0.0295753
-0.0313212
-0.0329296
-0.0344115
-0.0357764
-0.0370328
-0.0381883
-0.0392492
-0.0402208
-0.0411081
-0.0419153
-0.0426457
-0.0433023
-0.0438875
-0.0444035
-0.0448517
-0.045234
-0.0455514
-0.0458048
-0.045995
-0.0461225
-0.0461878
0.00189845
0.00185552
0.00176368
0.00162495
0.00143888
0.00120495
0.000922556
0.000591039
0.000209787
-0.00022168
-0.000703613
-0.00123587
-0.00181796
-0.00244848
-0.00312521
-0.00384481
-0.00460264
-0.00539242
-0.00620589
-0.00703238
-0.00785847
-0.0086677
-0.00944026
-0.0101526
-0.0107771
-0.011282
-0.0116314
-0.0117853
-0.0117004
-0.0113302
-0.0106265
-0.00954085
-0.00802871
-0.00604441
-0.00355477
-0.000534865
0.00302639
0.00712248
0.0117261
0.0167866
0.0222286
0.0279519
0.0338329
0.039728
0.0454795
0.0509213
0.0558874
0.0602202
0.0637789
0.0664475
0.0681405
0.068808
0.0684378
0.0670562
0.0647244
0.0615344
0.0576029
0.0530631
0.0480566
0.0427237
0.0371975
0.0315977
0.0260272
0.0205699
0.015291
0.0102376
0.00544224
0.00092427
-0.00330678
-0.00724949
-0.0109077
-0.0142899
-0.0174078
-0.0202756
-0.0229091
-0.025325
-0.0275403
-0.0295718
-0.0314355
-0.0331462
-0.0347174
-0.0361611
-0.037488
-0.0387072
-0.0398269
-0.0408537
-0.0417935
-0.0426513
-0.0434312
-0.0441368
-0.0447712
-0.0453365
-0.0458347
-0.0462677
-0.0466369
-0.0469437
-0.0471886
-0.0473725
-0.0474958
-0.047559
0.00224596
0.00219842
0.00209974
0.00195033
0.00174953
0.00149648
0.00119012
0.000829299
0.000412804
-6.05235e-05
-0.000591735
-0.00118163
-0.0018305
-0.0025381
-0.00330322
-0.00412362
-0.00499574
-0.00591431
-0.00687188
-0.00785844
-0.00886099
-0.00986315
-0.0108446
-0.0117807
-0.0126418
-0.0133932
-0.0139949
-0.0144017
-0.0145631
-0.0144243
-0.0139269
-0.0130109
-0.0116169
-0.0096878
-0.00717399
-0.0040366
-0.000251745
0.00418407
0.00924929
0.0148936
0.0210353
0.0275603
0.0343239
0.0411544
0.0478597
0.0542358
0.0600774
0.0651883
0.0693928
0.0725461
0.074542
0.0753195
0.0748656
0.0732155
0.0704498
0.066687
0.0620763
0.0567873
0.0509984
0.0448849
0.0386101
0.032317
0.0261255
0.0201292
0.0143967
0.00897329
0.00388513
-0.000856625
-0.00525226
-0.00931002
-0.013043
-0.016468
-0.0196032
-0.0224684
-0.0250838
-0.02747
-0.0296471
-0.0316345
-0.0334505
-0.0351118
-0.0366332
-0.0380278
-0.0393072
-0.0404812
-0.0415581
-0.0425452
-0.0434482
-0.0442721
-0.0450214
-0.0456993
-0.0463088
-0.0468521
-0.0473311
-0.0477474
-0.0481026
-0.0483977
-0.0486335
-0.0488106
-0.0489294
-0.0489902
0.00264305
0.00259171
0.00248655
0.00232714
0.0021125
0.00184137
0.00151221
0.00112328
0.00067273
0.00015858
-0.000421152
-0.00106829
-0.00178425
-0.00256999
-0.00342564
-0.00435037
-0.005342
-0.00639664
-0.00750812
-0.00866762
-0.0098631
-0.0110788
-0.0122943
-0.0134845
-0.0146182
-0.0156583
-0.0165608
-0.0172751
-0.0177432
-0.0179011
-0.0176786
-0.0170017
-0.0157945
-0.0139824
-0.0114962
-0.00827864
-0.0042865
0.000498503
0.00606496
0.0123659
0.0193144
0.0267816
0.0345974
0.0425551
0.0504194
0.0579377
0.0648537
0.0709213
0.0759194
0.0796658
0.0820274
0.0829288
0.0823565
0.0803585
0.0770399
0.072555
0.0670949
0.060876
0.0541243
0.0470604
0.0398855
0.0327722
0.0258602
0.0192529
0.0130216
0.00720652
0.00182392
-0.00312748
-0.007662
-0.0118016
-0.0155722
-0.0190017
-0.0221172
-0.0249449
-0.0275105
-0.0298386
-0.0319525
-0.0338741
-0.0356234
-0.0372189
-0.0386765
-0.0400101
-0.0412321
-0.0423523
-0.0433793
-0.0443204
-0.0451816
-0.0459676
-0.0466827
-0.0473301
-0.0479124
-0.0484317
-0.0488899
-0.0492884
-0.0496286
-0.0499112
-0.0501372
-0.0503071
-0.050421
-0.0504793
0.00309304
0.0030386
0.00292762
0.00275919
0.00253199
0.00224431
0.00189409
0.00147899
0.000996368
0.000443328
-0.000183156
-0.000886074
-0.00166818
-0.00253176
-0.00347874
-0.00450991
-0.00562488
-0.00682157
-0.00809566
-0.00944011
-0.0108445
-0.0122943
-0.01377
-0.0152464
-0.016692
-0.0180675
-0.0193257
-0.0204106
-0.0212569
-0.0217902
-0.0219272
-0.0215775
-0.0206455
-0.0190339
-0.0166485
-0.013405
-0.00923831
-0.00410378
0.00200231
0.00904124
0.0169233
0.0255035
0.0345815
0.0439073
0.0531905
0.0621158
0.0703602
0.0776128
0.0835934
0.0880705
0.0908763
0.0919168
0.0911783
0.0887266
0.0847007
0.0793013
0.0727754
0.0653989
0.0574594
0.0492351
0.0409759
0.0328904
0.0251413
0.0178421
0.0110638
0.00483776
-0.000834802
-0.00597323
-0.0106109
-0.0147883
-0.0185486
-0.0219338
-0.0249825
-0.0277296
-0.0302067
-0.0324426
-0.0344636
-0.036294
-0.0379552
-0.0394666
-0.0408451
-0.0421051
-0.0432589
-0.0443165
-0.0452864
-0.0461756
-0.04699
-0.0477341
-0.0484116
-0.0490257
-0.0495787
-0.0500724
-0.0505083
-0.0508879
-0.0512119
-0.0514815
-0.0516972
-0.0518594
-0.0519681
-0.0520238
0.00359902
0.00354207
0.00342618
0.00325004
0.00301196
0.00270979
0.00234094
0.00190236
0.00139053
0.000801561
0.000131268
-0.000624641
-0.00147044
-0.0024102
-0.00344752
-0.00458545
-0.00582575
-0.00716868
-0.00861241
-0.0101524
-0.0117805
-0.0134843
-0.0152464
-0.0170426
-0.0188417
-0.0206038
-0.0222792
-0.0238072
-0.0251153
-0.0261183
-0.0267185
-0.0268065
-0.0262628
-0.024962
-0.0227779
-0.0195912
-0.0153
-0.00983139
-0.00315223
0.00471363
0.0136777
0.0235782
0.0341791
0.0451758
0.0562074
0.066877
0.0767746
0.0855041
0.0927081
0.0980908
0.101438
0.102632
0.101659
0.0986112
0.0936731
0.0871088
0.079239
0.0704177
0.0610104
0.0513687
0.0418036
0.0325679
0.0238493
0.0157721
0.00840123
0.00175269
-0.00419458
-0.00948505
-0.0141771
-0.0183353
-0.0220246
-0.0253053
-0.0282302
-0.0308445
-0.0331869
-0.0352904
-0.0371846
-0.0388949
-0.040444
-0.0418515
-0.0431345
-0.0443073
-0.0453821
-0.0463685
-0.0472742
-0.0481058
-0.0488687
-0.049567
-0.0502041
-0.0507824
-0.0513041
-0.0517705
-0.0521829
-0.0525425
-0.0528499
-0.0531057
-0.0533106
-0.0534647
-0.0535682
-0.0536213
0.00416358
0.00410479
0.00398511
0.00380287
0.00355604
0.00324204
0.00285766
0.00239909
0.0018619
0.0012411
0.000531274
-0.000273342
-0.00117874
-0.00219094
-0.00331575
-0.00455859
-0.00592394
-0.00741499
-0.00903305
-0.0107768
-0.0126414
-0.0146179
-0.0166918
-0.0188416
-0.021038
-0.0232417
-0.0254021
-0.0274552
-0.0293219
-0.0309064
-0.0320955
-0.0327581
-0.0327468
-0.0319012
-0.0300541
-0.0270403
-0.0227094
-0.0169416
-0.00966632
-0.000879849
0.00933809
0.0208095
0.0332562
0.0463046
0.0595027
0.0723467
0.0843129
0.0948932
0.103629
0.11014
0.11415
0.11551
0.114206
0.110366
0.10424
0.0961784
0.0866023
0.0759694
0.0647453
0.0533732
0.0422399
0.0316506
0.0218199
0.0128794
0.00488077
-0.00218542
-0.00837279
-0.0137607
-0.0184403
-0.0225063
-0.02605
-0.0291536
-0.0318869
-0.0343074
-0.0364615
-0.0383872
-0.0401159
-0.0416743
-0.0430851
-0.0443677
-0.0455382
-0.0466103
-0.0475951
-0.0485014
-0.0493361
-0.0501048
-0.0508121
-0.0514614
-0.0520552
-0.0525958
-0.0530844
-0.0535225
-0.0539105
-0.0542492
-0.0545392
-0.054781
-0.0549748
-0.0551206
-0.0552186
-0.0552689
0.00478881
0.00472889
0.00460672
0.00442033
0.00416736
0.00384475
0.00344867
0.00297449
0.00241684
0.00176958
0.00102595
0.000178561
-0.000780463
-0.00185932
-0.00306631
-0.00440955
-0.00589687
-0.00753493
-0.00932888
-0.0112816
-0.0133927
-0.0156579
-0.0180671
-0.0206036
-0.0232416
-0.0259448
-0.0286638
-0.0313332
-0.0338691
-0.0361659
-0.0380944
-0.0394998
-0.0402021
-0.0399986
-0.0386702
-0.0359918
-0.0317477
-0.0257526
-0.0178771
-0.0080756
0.00359169
0.016935
0.0316264
0.047206
0.0631021
0.0786705
0.0932374
0.106149
0.116813
0.12474
0.129569
0.131104
0.129333
0.124432
0.116745
0.10674
0.0949769
0.0820557
0.0685744
0.05509
0.0420808
0.0299118
0.0188241
0.00894576
0.000306059
-0.00714426
-0.0135065
-0.0189079
-0.0234826
-0.027362
-0.0306682
-0.0335082
-0.0359715
-0.0381287
-0.0400347
-0.0417317
-0.043253
-0.0446253
-0.0458702
-0.0470058
-0.0480467
-0.0490045
-0.0498888
-0.050707
-0.0514644
-0.0521655
-0.0528136
-0.0534111
-0.0539597
-0.0544609
-0.0549155
-0.0553241
-0.0556871
-0.0560045
-0.0562768
-0.0565042
-0.0566867
-0.0568242
-0.0569166
-0.0569641
0.00547606
0.00541579
0.00529265
0.0051044
0.00484837
0.00452099
0.00411778
0.00363331
0.00306123
0.00239423
0.00162409
0.000741681
-0.000262882
-0.00140016
-0.00268125
-0.00411752
-0.00572028
-0.00750053
-0.00946801
-0.0116308
-0.0139943
-0.0165602
-0.0193252
-0.0222788
-0.0254018
-0.0286636
-0.032019
-0.0354043
-0.0387334
-0.0418931
-0.0447388
-0.0470907
-0.0487321
-0.0494099
-0.0488405
-0.0467215
-0.04275
-0.0366501
-0.0282069
-0.0173053
-0.00397082
0.0116017
0.0290306
0.0477459
0.0670181
0.0860159
0.103867
0.119728
0.132836
0.142545
0.148395
0.150135
0.147709
0.141381
0.131633
0.11908
0.104482
0.0886418
0.0723372
0.05627
0.0410252
0.0270313
0.0145475
0.00368416
-0.00557169
-0.0133288
-0.0197558
-0.0250449
-0.0293867
-0.0329571
-0.0359129
-0.0383881
-0.0404919
-0.0423088
-0.0439013