/*--------------------------------*- C++ -*----------------------------------*\
| =========                 |                                                 |
| \\      /  F ield         | OpenFOAM: The Open Source CFD Toolbox           |
|  \\    /   O peration     | Version:  2312                                  |
|   \\  /    A nd           | Website:  www.openfoam.com                      |
|    \\/     M anipulation  |                                                 |
\*---------------------------------------------------------------------------*/
FoamFile
{
    version     2.0;
    format      ascii;
    arch        "LSB;label=32;scalar=64";
    class       surfaceScalarField;
    location    "0.05";
    object      phi;
}
// * * * * * * * * * * * * * * * * * * * * * * * * * * * * * * * * * * * * * //

dimensions      [0 3 -1 0 0 0 0];

oriented        oriented;

internalField   nonuniform List<scalar> 
19800
(
-4.76695e-15
-4.47964e-15
-1.29486e-11
1.29437e-11
-1.54512e-11
2.50236e-12
-1.53139e-11
-1.37402e-13
-1.38218e-11
-1.49203e-12
-1.22628e-11
-1.55902e-12
-1.09592e-11
-1.30385e-12
-9.93813e-12
-1.02126e-12
-9.17056e-12
-7.67447e-13
-8.62745e-12
-5.42591e-13
-8.26767e-12
-3.59178e-13
-8.06137e-12
-2.06105e-13
-7.99287e-12
-6.89172e-14
-8.04042e-12
4.68296e-14
-8.19235e-12
1.51487e-13
-8.44215e-12
2.49963e-13
-8.79702e-12
3.55315e-13
-9.25508e-12
4.58111e-13
-9.82449e-12
5.6866e-13
-1.05027e-11
6.76868e-13
-1.13071e-11
8.03376e-13
-1.22501e-11
9.42744e-13
-1.33326e-11
1.08322e-12
-1.45585e-11
1.22677e-12
-1.59176e-11
1.35933e-12
-1.74064e-11
1.48834e-12
-1.90113e-11
1.60403e-12
-2.07149e-11
1.70302e-12
-2.24924e-11
1.77737e-12
-2.43227e-11
1.83049e-12
-2.61793e-11
1.85644e-12
-2.80345e-11
1.85458e-12
-2.98626e-11
1.82727e-12
-3.16391e-11
1.77592e-12
-3.33404e-11
1.70113e-12
-3.49451e-11
1.6048e-12
-3.64346e-11
1.48946e-12
-3.77887e-11
1.35387e-12
-3.89922e-11
1.20336e-12
-4.00315e-11
1.03945e-12
-4.0895e-11
8.63856e-13
-4.15735e-11
6.78865e-13
-4.20609e-11
4.875e-13
-4.23542e-11
2.92866e-13
-4.24539e-11
9.90186e-14
-4.23623e-11
-9.19806e-14
-4.20856e-11
-2.76308e-13
-4.16345e-11
-4.50632e-13
-4.10223e-11
-6.1174e-13
-4.02651e-11
-7.56234e-13
-3.93815e-11
-8.82577e-13
-3.83917e-11
-9.8953e-13
-3.73166e-11
-1.07483e-12
-3.61773e-11
-1.13879e-12
-3.49953e-11
-1.18104e-12
-3.37909e-11
-1.20327e-12
-3.25843e-11
-1.20604e-12
-3.13925e-11
-1.19148e-12
-3.02306e-11
-1.1618e-12
-2.91117e-11
-1.11886e-12
-2.80448e-11
-1.06553e-12
-2.70398e-11
-1.00421e-12
-2.61036e-11
-9.35897e-13
-2.52361e-11
-8.6657e-13
-2.44361e-11
-8.00087e-13
-2.36983e-11
-7.36989e-13
-2.30207e-11
-6.77947e-13
-2.23953e-11
-6.25512e-13
-2.18085e-11
-5.84811e-13
-2.12502e-11
-5.57213e-13
-2.07076e-11
-5.42879e-13
-2.01654e-11
-5.42444e-13
-1.96114e-11
-5.53759e-13
-1.90333e-11
-5.78757e-13
-1.84211e-11
-6.12534e-13
-1.77719e-11
-6.49704e-13
-1.7086e-11
-6.8649e-13
-1.63662e-11
-7.19776e-13
-1.56218e-11
-7.45648e-13
-1.48628e-11
-7.59588e-13
-1.41061e-11
-7.5671e-13
-1.33679e-11
-7.38766e-13
-1.26607e-11
-7.0709e-13
-1.19863e-11
-6.73269e-13
-1.13419e-11
-6.45919e-13
-1.07044e-11
-6.34805e-13
-1.00609e-11
-6.42772e-13
-9.39841e-12
-6.62901e-13
-8.7075e-12
-6.89499e-13
-7.97669e-12
-7.31016e-13
-7.19981e-12
-7.78336e-13
-6.37507e-12
-8.25305e-13
-5.51752e-12
-8.57542e-13
-4.65314e-12
-8.63374e-13
-3.80976e-12
-8.44366e-13
-2.99972e-12
-8.09585e-13
-2.22376e-12
-7.74871e-13
-1.47229e-12
-7.51676e-13
-7.29417e-13
-7.42181e-13
-7.30813e-13
1.29434e-11
-1.2948e-11
1.29431e-11
1.29436e-11
8.87023e-12
6.57504e-12
5.95629e-12
2.77652e-12
3.69367e-12
7.70547e-13
2.13567e-12
-1.1466e-15
1.07068e-12
-2.38864e-13
3.00246e-13
-2.50369e-13
-3.0645e-13
-1.59834e-13
-8.18258e-13
-2.98786e-14
-1.3071e-12
1.29909e-13
-1.81212e-12
2.98287e-13
-2.34294e-12
4.60889e-13
-2.93415e-12
6.37429e-13
-3.59905e-12
8.1654e-13
-4.34284e-12
9.94213e-13
-5.16957e-12
1.18188e-12
-6.08709e-12
1.37436e-12
-7.0939e-12
1.57355e-12
-8.20552e-12
1.78704e-12
-9.41536e-12
2.01305e-12
-1.07152e-11
2.24354e-12
-1.21049e-11
2.4741e-12
-1.3586e-11
2.7082e-12
-1.51451e-11
2.91772e-12
-1.67878e-11
3.12981e-12
-1.84969e-11
3.31239e-12
-2.02601e-11
3.4661e-12
-2.20717e-11
3.58907e-12
-2.39146e-11
3.67304e-12
-2.57739e-11
3.71479e-12
-2.76354e-11
3.71506e-12
-2.948e-11
3.67116e-12
-3.12876e-11
3.58334e-12
-3.3038e-11
3.4516e-12
-3.47112e-11
3.27781e-12
-3.62857e-11
3.06359e-12
-3.77413e-11
2.80926e-12
-3.90592e-11
2.52144e-12
-4.02222e-11
2.20313e-12
-4.12162e-11
1.85847e-12
-4.20289e-11
1.49139e-12
-4.2653e-11
1.11082e-12
-4.30827e-11
7.22063e-13
-4.33178e-11
3.34008e-13
-4.33621e-11
-4.76582e-14
-4.32217e-11
-4.15842e-13
-4.29068e-11
-7.63927e-13
-4.24295e-11
-1.08801e-12
-4.18078e-11
-1.37749e-12
-4.10595e-11
-1.62996e-12
-4.02035e-11
-1.84464e-12
-3.9259e-11
-2.01825e-12
-3.82467e-11
-2.14979e-12
-3.71864e-11
-2.2403e-12
-3.60923e-11
-2.29633e-12
-3.49873e-11
-2.31046e-12
-3.3883e-11
-2.29526e-12
-3.27905e-11
-2.25288e-12
-3.17218e-11
-2.18732e-12
-3.06827e-11
-2.10329e-12
-2.96792e-11
-2.00611e-12
-2.87239e-11
-1.89101e-12
-2.78092e-11
-1.78014e-12
-2.69311e-11
-1.67864e-12
-2.60917e-11
-1.57522e-12
-2.52866e-11
-1.4812e-12
-2.45131e-11
-1.39927e-12
-2.37655e-11
-1.33179e-12
-2.30414e-11
-1.28003e-12
-2.23323e-11
-1.25161e-12
-2.16369e-11
-1.23874e-12
-2.09507e-11
-1.24022e-12
-2.02711e-11
-1.25946e-12
-1.95954e-11
-1.28943e-12
-1.8919e-11
-1.32652e-12
-1.82434e-11
-1.36356e-12
-1.75635e-11
-1.39945e-12
-1.68794e-11
-1.4302e-12
-1.61884e-11
-1.45122e-12
-1.54833e-11
-1.46166e-12
-1.47632e-11
-1.4593e-12
-1.40256e-11
-1.44449e-12
-1.32665e-11
-1.42991e-12
-1.24934e-11
-1.42049e-12
-1.16996e-11
-1.42752e-12
-1.08892e-11
-1.45012e-12
-1.00672e-11
-1.48463e-12
-9.2383e-12
-1.51956e-12
-8.40746e-12
-1.56141e-12
-7.58207e-12
-1.60365e-12
-6.76291e-12
-1.64374e-12
-5.94663e-12
-1.67432e-12
-5.12206e-12
-1.68754e-12
-4.28233e-12
-1.68428e-12
-3.42687e-12
-1.66715e-12
-2.5598e-12
-1.64281e-12
-1.68868e-12
-1.62369e-12
-8.24005e-13
-1.6058e-12
-1.55331e-12
2.50212e-12
-1.54504e-11
6.57445e-12
8.87114e-12
6.57432e-12
6.57521e-12
5.53267e-12
3.81836e-12
4.27407e-12
2.02945e-12
3.18263e-12
1.09072e-12
2.2963e-12
6.48139e-13
1.56171e-12
4.85196e-13
9.47592e-13
4.55313e-13
3.85681e-13
5.3266e-13
-1.58209e-13
6.73719e-13
-7.16777e-13
8.56228e-13
-1.31689e-12
1.06039e-12
-1.9774e-12
1.29781e-12
-2.70324e-12
1.54268e-12
-3.50493e-12
1.79605e-12
-4.38951e-12
2.06591e-12
-5.36748e-12
2.35112e-12
-6.44526e-12
2.65012e-12
-7.61229e-12
2.95363e-12
-8.87328e-12
3.2746e-12
-1.02253e-11
3.59664e-12
-1.16685e-11
3.91801e-12
-1.31923e-11
4.23209e-12
-1.48008e-11
4.52585e-12
-1.64761e-11
4.80473e-12
-1.82169e-11
5.05312e-12
-2.00144e-11
5.26384e-12
-2.18559e-11
5.43053e-12
-2.37299e-11
5.54675e-12
-2.5624e-11
5.60832e-12
-2.75202e-11
5.611e-12
-2.94e-11
5.55099e-12
-3.12448e-11
5.42814e-12
-3.30339e-11
5.24037e-12
-3.47463e-11
4.98965e-12
-3.63611e-11
4.67804e-12
-3.78541e-11
4.30246e-12
-3.92065e-11
3.87444e-12
-4.04016e-11
3.3988e-12
-4.14249e-11
2.88203e-12
-4.22632e-11
2.32939e-12
-4.2908e-11
1.75486e-12
-4.33535e-11
1.16744e-12
-4.35984e-11
5.79415e-13
-4.36465e-11
4.78328e-16
-4.35044e-11
-5.58177e-13
-4.31821e-11
-1.08589e-12
-4.26958e-11
-1.5738e-12
-4.20602e-11
-2.01302e-12
-4.12938e-11
-2.396e-12
-4.04178e-11
-2.72016e-12
-3.94524e-11
-2.98306e-12
-3.84179e-11
-3.18344e-12
-3.73342e-11
-3.32347e-12
-3.62235e-11
-3.40651e-12
-3.50991e-11
-3.43436e-12
-3.39789e-11
-3.41538e-12
-3.28729e-11
-3.35756e-12
-3.17936e-11
-3.26661e-12
-3.07473e-11
-3.1496e-12
-2.97371e-11
-3.01505e-12
-2.87718e-11
-2.85609e-12
-2.78391e-11
-2.71172e-12
-2.69523e-11
-2.56601e-12
-2.61038e-11
-2.42419e-12
-2.52895e-11
-2.29396e-12
-2.4507e-11
-2.1809e-12
-2.37503e-11
-2.0886e-12
-2.30174e-11
-2.01316e-12
-2.23056e-11
-1.96355e-12
-2.16086e-11
-1.93607e-12
-2.09259e-11
-1.92322e-12
-2.02543e-11
-1.93099e-12
-1.95893e-11
-1.95514e-12
-1.89278e-11
-1.98747e-12
-1.82667e-11
-2.02525e-12
-1.76035e-11
-2.06199e-12
-1.69329e-11
-2.1007e-12
-1.62513e-11
-2.13369e-12
-1.55498e-11
-2.16298e-12
-1.48276e-11
-2.18244e-12
-1.40799e-11
-2.19188e-12
-1.33123e-11
-2.19712e-12
-1.25235e-11
-2.20786e-12
-1.17181e-11
-2.2314e-12
-1.09018e-11
-2.26735e-12
-1.00789e-11
-2.30632e-12
-9.25103e-12
-2.34675e-12
-8.42324e-12
-2.38836e-12
-7.59706e-12
-2.43024e-12
-6.77052e-12
-2.4713e-12
-5.93818e-12
-2.50542e-12
-5.10006e-12
-2.52642e-12
-4.25272e-12
-2.53052e-12
-3.39897e-12
-2.51951e-12
-2.54062e-12
-2.50285e-12
-1.67518e-12
-2.48922e-12
-8.15532e-13
-2.46648e-12
-2.37023e-12
-1.37647e-13
-1.53128e-11
2.77595e-12
5.95751e-12
3.81749e-12
5.53387e-12
3.81759e-12
3.81875e-12
3.38273e-12
2.4651e-12
2.82791e-12
1.64655e-12
2.26408e-12
1.2131e-12
1.72966e-12
1.0207e-12
1.20744e-12
9.78365e-13
6.85027e-13
1.05542e-12
1.53179e-13
1.20543e-12
-4.02243e-13
1.4113e-12
-1.00579e-12
1.66373e-12
-1.64752e-12
1.93965e-12
-2.36073e-12
2.25612e-12
-3.15548e-12
2.59079e-12
-4.03758e-12
2.94758e-12
-5.01254e-12
3.32549e-12
-6.08164e-12
3.71893e-12
-7.24829e-12
4.12063e-12
-8.51437e-12
4.54153e-12
-9.87448e-12
4.95769e-12
-1.1328e-11
5.3721e-12
-1.28704e-11
5.77476e-12
-1.45035e-11
6.15885e-12
-1.6213e-11
6.51427e-12
-1.7992e-11
6.83223e-12
-1.9833e-11
7.10492e-12
-2.17241e-11
7.32156e-12
-2.36518e-11
7.47439e-12
-2.56023e-11
7.55901e-12
-2.75588e-11
7.56764e-12
-2.95035e-11
7.4958e-12
-3.14126e-11
7.3369e-12
-3.32657e-11
7.09298e-12
-3.50396e-11
6.76313e-12
-3.67116e-11
6.35028e-12
-3.82588e-11
5.85034e-12
-3.96606e-11
5.27697e-12
-4.08988e-11
4.63724e-12
-4.19543e-11
3.93752e-12
-4.28174e-11
3.19253e-12
-4.34768e-11
2.41412e-12
-4.39252e-11
1.61568e-12
-4.41636e-11
8.17914e-13
-4.41947e-11
3.11941e-14
-4.40264e-11
-7.2753e-13
-4.36692e-11
-1.44352e-12
-4.31368e-11
-2.10569e-12
-4.24497e-11
-2.69991e-12
-4.16261e-11
-3.2197e-12
-4.06887e-11
-3.65784e-12
-3.96612e-11
-4.01068e-12
-3.85661e-11
-4.27782e-12
-3.74272e-11
-4.46184e-12
-3.62644e-11
-4.56872e-12
-3.50931e-11
-4.60503e-12
-3.39307e-11
-4.5784e-12
-3.27904e-11
-4.49747e-12
-3.1684e-11
-4.37277e-12
-3.06197e-11
-4.21424e-12
-2.96008e-11
-4.03278e-12
-2.86201e-11
-3.83668e-12
-2.76929e-11
-3.63818e-12
-2.68144e-11
-3.44477e-12
-2.59777e-11
-3.26165e-12
-2.51779e-11
-3.0937e-12
-2.44115e-11
-2.94714e-12
-2.36763e-11
-2.82344e-12
-2.29633e-11
-2.72623e-12
-2.22701e-11
-2.65749e-12
-2.15939e-11
-2.61232e-12
-2.09292e-11
-2.58821e-12
-2.02722e-11
-2.58701e-12
-1.96191e-11
-2.60833e-12
-1.89644e-11
-2.64241e-12
-1.83063e-11
-2.68402e-12
-1.76416e-11
-2.72605e-12
-1.69708e-11
-2.77096e-12
-1.62878e-11
-2.81655e-12
-1.55873e-11
-2.86378e-12
-1.48654e-11
-2.90498e-12
-1.41192e-11
-2.9374e-12
-1.33502e-11
-2.96746e-12
-1.2563e-11
-2.99421e-12
-1.1762e-11
-3.02999e-12
-1.09508e-11
-3.07952e-12
-1.01267e-11
-3.13134e-12
-9.29097e-12
-3.18259e-12
-8.45005e-12
-3.22726e-12
-7.60705e-12
-3.26879e-12
-6.76955e-12
-3.30943e-12
-5.93272e-12
-3.34389e-12
-5.09375e-12
-3.36851e-12
-4.24917e-12
-3.37717e-12
-3.39374e-12
-3.37444e-12
-2.53066e-12
-3.36555e-12
-1.66005e-12
-3.35914e-12
-7.95167e-13
-3.32956e-12
-3.16429e-12
-1.49233e-12
-1.38204e-11
7.6999e-13
3.69514e-12
2.02858e-12
4.27557e-12
2.46394e-12
3.38418e-12
2.46437e-12
2.46582e-12
2.25017e-12
1.862e-12
1.94246e-12
1.52192e-12
1.59013e-12
1.37391e-12
1.19567e-12
1.37344e-12
7.79694e-13
1.47175e-12
3.27917e-13
1.65734e-12
-1.68881e-13
1.90812e-12
-7.23107e-13
2.21802e-12
-1.34157e-12
2.5583e-12
-2.02765e-12
2.94248e-12
-2.79823e-12
3.36163e-12
-3.6613e-12
3.81083e-12
-4.61829e-12
4.28267e-12
-5.67594e-12
4.77694e-12
-6.83872e-12
5.28405e-12
-8.09622e-12
5.79988e-12
-9.46054e-12
6.32282e-12
-1.09245e-11
6.83665e-12
-1.24877e-11
7.33808e-12
-1.41459e-11
7.81694e-12
-1.58921e-11
8.26019e-12
-1.77181e-11
8.65802e-12
-1.96125e-11
8.99938e-12
-2.15652e-11
9.2745e-12
-2.35638e-11
9.47346e-12
-2.55913e-11
9.58685e-12
-2.76292e-11
9.60582e-12
-2.96571e-11
9.52357e-12
-3.16531e-11
9.33263e-12
-3.35931e-11
9.03288e-12
-3.54517e-11
8.62202e-12
-3.72041e-11
8.10332e-12
-3.88266e-11
7.47362e-12
-4.02959e-11
6.7468e-12
-4.15908e-11
5.93239e-12
-4.26946e-11
5.04124e-12
-4.35915e-11
4.08975e-12
-4.4272e-11
3.09482e-12
-4.47251e-11
2.0681e-12
-4.49539e-11
1.04592e-12
-4.49584e-11
3.53485e-14
-4.47478e-11
-9.38599e-13
-4.43349e-11
-1.85675e-12
-4.37367e-11
-2.70374e-12
-4.29731e-11
-3.46375e-12
-4.20681e-11
-4.12549e-12
-4.10457e-11
-4.68055e-12
-3.9932e-11
-5.12436e-12
-3.87527e-11
-5.45623e-12
-3.75342e-11
-5.67966e-12
-3.62952e-11
-5.80764e-12
-3.50587e-11
-5.84119e-12
-3.38434e-11
-5.79433e-12
-3.26617e-11
-5.6792e-12
-3.15238e-11
-5.50976e-12
-3.0439e-11
-5.29909e-12
-2.94093e-11
-5.06182e-12
-2.84213e-11
-4.82498e-12
-2.74998e-11
-4.55992e-12
-2.66328e-11
-4.31188e-12
-2.58124e-11
-4.08172e-12
-2.50318e-11
-3.87419e-12
-2.42882e-11
-3.69186e-12
-2.35765e-11
-3.53593e-12
-2.28887e-11
-3.41341e-12
-2.22195e-11
-3.32674e-12
-2.1564e-11
-3.2682e-12
-2.09177e-11
-3.23503e-12
-2.02796e-11
-3.22574e-12
-1.96429e-11
-3.24389e-12
-1.90034e-11
-3.2821e-12
-1.83547e-11
-3.33329e-12
-1.76943e-11
-3.38592e-12
-1.70256e-11
-3.44159e-12
-1.63415e-11
-3.49844e-12
-1.56436e-11
-3.56174e-12
-1.4924e-11
-3.62538e-12
-1.41743e-11
-3.68568e-12
-1.34017e-11
-3.74042e-12
-1.26058e-11
-3.79132e-12
-1.17988e-11
-3.83805e-12
-1.09818e-11
-3.89626e-12
-1.01566e-11
-3.95749e-12
-9.32215e-12
-4.01597e-12
-8.4833e-12
-4.06536e-12
-7.64297e-12
-4.10815e-12
-6.80144e-12
-4.14929e-12
-5.95765e-12
-4.18676e-12
-5.10959e-12
-4.21668e-12
-4.25505e-12
-4.23336e-12
-3.39104e-12
-4.23755e-12
-2.51711e-12
-4.23896e-12
-1.64094e-12
-4.23675e-12
-7.68067e-13
-4.20488e-12
-3.93433e-12
-1.55928e-12
-1.22612e-11
-1.72444e-15
2.13742e-12
1.08987e-12
3.18438e-12
1.64541e-12
2.82964e-12
1.86057e-12
2.25189e-12
1.86098e-12
1.86269e-12
1.73393e-12
1.64983e-12
1.52501e-12
1.58355e-12
1.25885e-12
1.64029e-12
9.34964e-13
1.79626e-12
5.55222e-13
2.03753e-12
1.16684e-13
2.34688e-12
-3.80687e-13
2.71556e-12
-9.55924e-13
3.13389e-12
-1.61054e-12
3.59773e-12
-2.35402e-12
4.10588e-12
-3.19167e-12
4.64914e-12
-4.12955e-12
5.22103e-12
-5.17046e-12
5.81827e-12
-6.32116e-12
6.43532e-12
-7.57624e-12
7.05569e-12
-8.94562e-12
7.69285e-12
-1.04254e-11
8.31659e-12
-1.20127e-11
8.92503e-12
-1.37037e-11
9.50722e-12
-1.54931e-11
1.0049e-11
-1.73731e-11
1.05378e-11
-1.93344e-11
1.09611e-11
-2.13653e-11
1.1306e-11
-2.34509e-11
1.15596e-11
-2.5573e-11
1.17092e-11
-2.77117e-11
1.17445e-11
-2.98453e-11
1.16573e-11
-3.19509e-11
1.14384e-11
-3.40012e-11
1.10837e-11
-3.59688e-11
1.05901e-11
-3.78261e-11
9.96124e-12
-3.95481e-11
9.19629e-12
-4.11079e-11
8.30739e-12
-4.24823e-11
7.30738e-12
-4.36487e-11
6.20784e-12
-4.45924e-11
5.03336e-12
-4.52977e-11
3.79999e-12
-4.57589e-11
2.52857e-12
-4.59713e-11
1.25746e-12
-4.59388e-11
3.02546e-15
-4.56717e-11
-1.20525e-12
-4.51864e-11
-2.34227e-12
-4.45001e-11
-3.39061e-12
-4.36368e-11
-4.32789e-12
-4.26234e-11
-5.13952e-12
-4.14876e-11
-5.81604e-12
-4.02612e-11
-6.35021e-12
-3.8972e-11
-6.74466e-12
-3.76535e-11
-6.99766e-12
-3.63249e-11
-7.13652e-12
-3.50104e-11
-7.15538e-12
-3.37292e-11
-7.07549e-12
-3.24953e-11
-6.91346e-12
-3.13181e-11
-6.68602e-12
-3.02058e-11
-6.411e-12
-2.91614e-11
-6.10577e-12
-2.8173e-11
-5.81344e-12
-2.72602e-11
-5.47293e-12
-2.64071e-11
-5.1658e-12
-2.56061e-11
-4.88257e-12
-2.48509e-11
-4.62834e-12
-2.4136e-11
-4.40708e-12
-2.34529e-11
-4.22035e-12
-2.27971e-11
-4.06979e-12
-2.21587e-11
-3.96443e-12
-2.15314e-11
-3.89655e-12
-2.09081e-11
-3.85816e-12
-2.0291e-11
-3.84512e-12
-1.96723e-11
-3.86227e-12
-1.90471e-11
-3.90663e-12
-1.84121e-11
-3.96871e-12
-1.77585e-11
-4.03751e-12
-1.70914e-11
-4.11085e-12
-1.64026e-11
-4.18604e-12
-1.56984e-11
-4.26584e-12
-1.49725e-11
-4.35205e-12
-1.42214e-11
-4.43809e-12
-1.34451e-11
-4.51788e-12
-1.26484e-11
-4.58709e-12
-1.18401e-11
-4.64713e-12
-1.10245e-11
-4.70976e-12
-1.02039e-11
-4.77794e-12
-9.37625e-12
-4.84484e-12
-8.53685e-12
-4.90452e-12
-7.69088e-12
-4.95557e-12
-6.84035e-12
-5.00078e-12
-5.98621e-12
-5.04012e-12
-5.12837e-12
-5.07421e-12
-4.26354e-12
-5.09589e-12
-3.39231e-12
-5.11062e-12
-2.51027e-12
-5.11863e-12
-1.62892e-12
-5.11722e-12
-7.43574e-13
-5.09054e-12
-4.67919e-12
-1.30409e-12
-1.09573e-11
-2.39413e-13
1.0727e-12
6.47361e-13
2.29826e-12
1.21197e-12
2.26614e-12
1.52049e-12
1.94447e-12
1.64812e-12
1.73591e-12
1.64834e-12
1.65032e-12
1.55454e-12
1.67819e-12
1.38553e-12
1.81028e-12
1.14832e-12
2.03431e-12
8.45048e-13
2.34126e-12
4.72632e-13
2.71944e-12
2.75176e-14
3.16089e-12
-4.98143e-13
3.66016e-12
-1.11094e-12
4.21147e-12
-1.81682e-12
4.81264e-12
-2.62175e-12
5.45452e-12
-3.53328e-12
6.13266e-12
-4.55573e-12
6.84088e-12
-5.69255e-12
7.57262e-12
-6.95303e-12
8.31681e-12
-8.32326e-12
9.06333e-12
-9.81886e-12
9.81165e-12
-1.14341e-11
1.05391e-11
-1.31638e-11
1.1236e-11
-1.50056e-11
1.18905e-11
-1.69515e-11
1.24842e-11
-1.89917e-11
1.30021e-11
-2.11137e-11
1.34285e-11
-2.33017e-11
1.37477e-11
-2.55365e-11
1.39439e-11
-2.77975e-11
1.40057e-11
-3.0062e-11
1.39223e-11
-3.23028e-11
1.36798e-11
-3.44907e-11
1.3272e-11
-3.65968e-11
1.26967e-11
-3.85879e-11
1.19531e-11
-4.04365e-11
1.10459e-11
-4.21114e-11
9.98346e-12
-4.35853e-11
8.78215e-12
-4.4833e-11
7.45547e-12
-4.58349e-11
6.03462e-12
-4.65728e-11
4.53756e-12
-4.70403e-11
2.99626e-12
-4.72324e-11
1.4495e-12
-4.71538e-11
-7.5323e-14
-4.68146e-11
-1.54405e-12
-4.62348e-11
-2.92245e-12
-4.54342e-11
-4.19189e-12
-4.44412e-11
-5.32114e-12
-4.32896e-11
-6.29104e-12
-4.20142e-11
-7.0907e-12
-4.06496e-11
-7.71428e-12
-3.92293e-11
-8.16478e-12
-3.77828e-11
-8.44362e-12
-3.63427e-11
-8.57635e-12
-3.49315e-11
-8.56598e-12
-3.35687e-11
-8.43774e-12
-3.22719e-11
-8.21072e-12
-3.10499e-11
-7.90797e-12
-2.99073e-11
-7.55309e-12
-2.88465e-11
-7.16601e-12
-2.78671e-11
-6.79237e-12
-2.69639e-11
-6.375e-12
-2.61288e-11
-6.0013e-12
-2.5357e-11
-5.65526e-12
-2.46368e-11
-5.34801e-12
-2.39586e-11
-5.08504e-12
-2.33127e-11
-4.86607e-12
-2.26939e-11
-4.69098e-12
-2.20931e-11
-4.56438e-12
-2.15011e-11
-4.48907e-12
-2.09062e-11
-4.45178e-12
-2.03105e-11
-4.44181e-12
-1.97114e-11
-4.46215e-12
-1.91031e-11
-4.51568e-12
-1.84786e-11
-4.59372e-12
-1.78315e-11
-4.6844e-12
-1.71607e-11
-4.78107e-12
-1.64658e-11
-4.87962e-12
-1.57543e-11
-4.97913e-12
-1.50225e-11
-5.08423e-12
-1.42701e-11
-5.18926e-12
-1.34985e-11
-5.29092e-12
-1.27091e-11
-5.37751e-12
-1.19054e-11
-5.45139e-12
-1.10925e-11
-5.52262e-12
-1.02717e-11
-5.59812e-12
-9.44085e-12
-5.67729e-12
-8.59552e-12
-5.74974e-12
-7.74112e-12
-5.81121e-12
-6.87981e-12
-5.86102e-12
-6.01532e-12
-5.90231e-12
-5.15055e-12
-5.9372e-12
-4.28e-12
-5.96544e-12
-3.40285e-12
-5.98783e-12
-2.51425e-12
-6.0075e-12
-1.62478e-12
-6.00785e-12
-7.28088e-13
-5.9897e-12
-5.40724e-12
-1.0215e-12
-9.93605e-12
-2.50943e-13
3.02554e-13
4.84291e-13
1.56396e-12
1.01951e-12
1.73198e-12
1.37248e-12
1.59235e-12
1.58184e-12
1.52724e-12
1.67622e-12
1.55678e-12
1.67663e-12
1.67885e-12
1.59588e-12
1.89208e-12
1.43976e-12
2.19105e-12
1.21014e-12
2.57096e-12
9.0567e-13
3.02385e-12
5.20536e-13
3.54633e-12
4.89588e-14
4.13251e-12
-5.16689e-13
4.77791e-12
-1.17732e-12
5.47354e-12
-1.94694e-12
6.22384e-12
-2.82859e-12
7.01393e-12
-3.82815e-12
7.84056e-12
-4.9502e-12
8.69529e-12
-6.20079e-12
9.56787e-12
-7.58234e-12
1.04445e-11
-9.09411e-12
1.13222e-11
-1.07396e-11
1.21834e-11
-1.25162e-11
1.30122e-11
-1.44172e-11
1.37922e-11
-1.64372e-11
1.45054e-11
-1.85673e-11
1.51328e-11
-2.07949e-11
1.5656e-11
-2.31035e-11
1.6056e-11
-2.54725e-11
1.6313e-11
-2.78808e-11
1.64144e-11
-3.03025e-11
1.63445e-11
-3.27084e-11
1.6086e-11
-3.50657e-11
1.56293e-11
-3.73403e-11
1.49719e-11
-3.94966e-11
1.41108e-11
-4.15026e-11
1.30535e-11
-4.33199e-11
1.1802e-11
-4.49174e-11
1.03801e-11
-4.62662e-11
8.8041e-12
-4.7339e-11
7.10675e-12
-4.81193e-11
5.31791e-12
-4.85949e-11
3.47251e-12
-4.87593e-11
1.61432e-12
-4.86187e-11
-2.1598e-13
-4.81865e-11
-1.97615e-12
-4.74909e-11
-3.61795e-12
-4.6549e-11
-5.1338e-12
-4.53992e-11
-6.47059e-12
-4.408e-11
-7.60979e-12
-4.26322e-11
-8.53791e-12
-4.10955e-11
-9.25041e-12
-3.95119e-11
-9.74822e-12
-3.79134e-11
-1.00418e-11
-3.63394e-11
-1.01499e-11
-3.48109e-11
-1.00943e-11
-3.33515e-11
-9.89634e-12
-3.19777e-11
-9.58404e-12
-3.07016e-11
-9.18385e-12
-2.9524e-11
-8.73006e-12
-2.845e-11
-8.23992e-12
-2.74802e-11
-7.76246e-12
-2.65924e-11
-7.26131e-12
-2.57855e-11
-6.80673e-12
-2.50518e-11
-6.38946e-12
-2.43768e-11
-6.02258e-12
-2.37483e-11
-5.71483e-12
-2.31499e-11
-5.46298e-12
-2.25784e-11
-5.26376e-12
-2.20215e-11
-5.12126e-12
-2.14706e-11
-5.03949e-12
-2.09126e-11
-5.00913e-12
-2.03435e-11
-5.01162e-12
-1.97621e-11
-5.04226e-12
-1.91684e-11
-5.11144e-12
-1.85551e-11
-5.20678e-12
-1.79149e-11
-5.32524e-12
-1.72464e-11
-5.44996e-12
-1.65497e-11
-5.57571e-12
-1.58316e-11
-5.69728e-12
-1.51012e-11
-5.81653e-12
-1.43541e-11
-5.93732e-12
-1.35871e-11
-6.0567e-12
-1.27989e-11
-6.16576e-12
-1.19918e-11
-6.25897e-12
-1.11712e-11
-6.34391e-12
-1.03426e-11
-6.42639e-12
-9.50399e-12
-6.51538e-12
-8.65052e-12
-6.6016e-12
-7.78918e-12
-6.67307e-12
-6.91957e-12
-6.72761e-12
-6.0525e-12
-6.77111e-12
-5.18241e-12
-6.80712e-12
-4.30821e-12
-6.8407e-12
-3.42355e-12
-6.87363e-12
-2.53148e-12
-6.89996e-12
-1.6342e-12
-6.90379e-12
-7.30052e-13
-6.89562e-12
-6.13832e-12
-7.67673e-13
-9.16827e-12
-1.60382e-13
-3.03876e-13
4.5446e-13
9.50106e-13
9.77287e-13
1.20994e-12
1.372e-12
1.19821e-12
1.63858e-12
1.26132e-12
1.8083e-12
1.38802e-12
1.88984e-12
1.59835e-12
1.89004e-12
1.89255e-12
1.81215e-12
2.26896e-12
1.65689e-12
2.7259e-12
1.4219e-12
3.25876e-12
1.1009e-12
3.86779e-12
6.89676e-13
4.54437e-12
1.81403e-13
5.28634e-12
-4.37109e-13
6.09147e-12
-1.16102e-12
6.94691e-12
-2.00692e-12
7.85953e-12
-2.97827e-12
8.81245e-12
-4.08082e-12
9.79865e-12
-5.32222e-12
1.08095e-11
-6.71016e-12
1.18317e-11
-8.2398e-12
1.28508e-11
-9.91827e-12
1.38615e-11
-1.17428e-11
1.48374e-11
-1.3709e-11
1.57595e-11
-1.58135e-11
1.66107e-11
-1.80469e-11
1.73662e-11
-2.03962e-11
1.80049e-11
-2.28443e-11
1.85038e-11
-2.53712e-11
1.88401e-11
-2.79531e-11
1.89966e-11
-3.05615e-11
1.8953e-11
-3.31637e-11
1.86882e-11
-3.57246e-11
1.81906e-11
-3.82036e-11
1.74521e-11
-4.05609e-11
1.64699e-11
-4.27569e-11
1.52511e-11
-4.47491e-11
1.37948e-11
-4.6498e-11
1.21291e-11
-4.79686e-11
1.02749e-11
-4.91294e-11
8.26765e-12
-4.99603e-11
6.14858e-12
-5.04452e-11
3.95751e-12
-5.05778e-11
1.74724e-12
-5.03656e-11
-4.27911e-13
-4.98241e-11
-2.51694e-12
-4.89863e-11
-4.4549e-12
-4.78713e-11
-6.24846e-12
-4.65285e-11
-7.81315e-12
-4.50032e-11
-9.13491e-12
-4.33452e-11
-1.01956e-11
-4.16003e-11
-1.09943e-11
-3.98151e-11
-1.15327e-11
-3.80302e-11
-1.18265e-11
-3.62883e-11
-1.18917e-11
-3.46179e-11
-1.1765e-11
-3.30442e-11
-1.14697e-11
-3.15833e-11
-1.10432e-11
-3.02476e-11
-1.05185e-11
-2.90365e-11
-9.94026e-12
-2.79514e-11
-9.32505e-12
-2.6996e-11
-8.71888e-12
-2.61351e-11
-8.12184e-12
-2.53674e-11
-7.57253e-12
-2.46828e-11
-7.07445e-12
-2.40651e-11
-6.63861e-12
-2.34968e-11
-6.28368e-12
-2.29592e-11
-6.0005e-12
-2.24418e-11
-5.78002e-12
-2.19392e-11
-5.62467e-12
-2.14359e-11
-5.54303e-12
-2.09185e-11
-5.52563e-12
-2.03844e-11
-5.54762e-12
-1.98251e-11
-5.60016e-12
-1.92476e-11
-5.68947e-12
-1.86484e-11
-5.80623e-12
-1.80221e-11
-5.95207e-12
-1.73668e-11
-6.10436e-12
-1.66798e-11
-6.26301e-12
-1.59654e-11
-6.41319e-12
-1.52283e-11
-6.5536e-12
-1.44743e-11
-6.69219e-12
-1.37028e-11
-6.82837e-12
-1.29088e-11
-6.95993e-12
-1.20944e-11
-7.07284e-12
-1.12633e-11
-7.17373e-12
-1.0421e-11
-7.27066e-12
-9.56966e-12
-7.36871e-12
-8.70789e-12
-7.46238e-12
-7.8399e-12
-7.5414e-12
-6.96665e-12
-7.60003e-12
-6.09316e-12
-7.64268e-12
-5.21815e-12
-7.68162e-12
-4.33848e-12
-7.72083e-12
-3.45102e-12
-7.76111e-12
-2.55903e-12
-7.79174e-12
-1.65913e-12
-7.80408e-12
-7.57114e-13
-7.7978e-12
-6.89637e-12
-5.42877e-13
-8.62491e-12
-3.03637e-14
-8.15554e-13
5.31873e-13
3.88441e-13
1.05436e-12
6.8775e-13
1.47033e-12
7.82551e-13
1.79457e-12
9.37676e-13
2.03234e-12
1.15106e-12
2.18883e-12
1.44246e-12
2.26646e-12
1.81492e-12
2.26611e-12
2.26886e-12
2.18676e-12
2.80491e-12
2.0248e-12
3.42091e-12
1.77516e-12
4.11799e-12
1.43005e-12
4.88977e-12
9.82069e-13
5.73386e-12
4.2314e-13
6.64948e-12
-2.57157e-13
7.62666e-12
-1.05726e-12
8.66002e-12
-1.99305e-12
9.74929e-12
-3.07261e-12
1.0879e-11
-4.30285e-12
1.20397e-11
-5.68904e-12
1.32173e-11
-7.23949e-12
1.44008e-11
-8.9518e-12
1.55742e-11
-1.08254e-11
1.6712e-11
-1.28648e-11
1.77998e-11
-1.50632e-11
1.88092e-11
-1.74119e-11
1.97145e-11
-1.98984e-11
2.04909e-11
-2.25064e-11
2.11117e-11
-2.52165e-11
2.15503e-11
-2.80014e-11
2.17816e-11
-3.0829e-11
2.17806e-11
-3.36638e-11
2.15235e-11
-3.64651e-11
2.0993e-11
-3.91888e-11
2.01773e-11
-4.17879e-11
1.90705e-11
-4.42142e-11
1.76783e-11
-4.64167e-11
1.59977e-11
-4.83505e-11
1.40631e-11
-4.99705e-11
1.18952e-11
-5.12414e-11
9.53863e-12
-5.21362e-11
7.04284e-12
-5.26362e-11
4.457e-12
-5.27343e-11
1.84595e-12
-5.24378e-11
-7.23203e-13
-5.17654e-11
-3.1882e-12
-5.07516e-11
-5.46783e-12
-4.94291e-11
-7.57081e-12
-4.78527e-11
-9.38946e-12
-4.6075e-11
-1.09121e-11
-4.41531e-11
-1.21173e-11
-4.21471e-11
-1.29999e-11
-4.01134e-11
-1.35657e-11
-3.81049e-11
-1.38348e-11
-3.61634e-11
-1.38325e-11
-3.43276e-11
-1.36001e-11
-3.26217e-11
-1.31757e-11
-3.10643e-11
-1.25996e-11
-2.96615e-11
-1.19209e-11
-2.84231e-11
-1.1178e-11
-2.73357e-11
-1.04119e-11
-2.6395e-11
-9.65986e-12
-2.55776e-11
-8.93993e-12
-2.48673e-11
-8.28109e-12
-2.42471e-11
-7.69474e-12
-2.37e-11
-7.1855e-12
-2.32043e-11
-6.77737e-12
-2.274e-11
-6.46639e-12
-2.22889e-11
-6.23109e-12
-2.18463e-11
-6.06779e-12
-2.13986e-11
-5.99163e-12
-2.09338e-11
-5.98977e-12
-2.04405e-11
-6.04008e-12
-1.99163e-11
-6.12439e-12
-1.9365e-11
-6.24147e-12
-1.87791e-11
-6.39116e-12
-1.8167e-11
-6.56516e-12
-1.75242e-11
-6.74917e-12
-1.68455e-11
-6.94051e-12
-1.61344e-11
-7.12403e-12
-1.53937e-11
-7.29452e-12
-1.46311e-11
-7.45442e-12
-1.38478e-11
-7.6119e-12
-1.30427e-11
-7.7647e-12
-1.22137e-11
-7.90397e-12
-1.13658e-11
-8.02259e-12
-1.0507e-11
-8.12786e-12
-9.64165e-12
-8.2333e-12
-8.77283e-12
-8.33124e-12
-7.89736e-12
-8.41654e-12
-7.01923e-12
-8.47902e-12
-6.13953e-12
-8.52445e-12
-5.25908e-12
-8.56418e-12
-4.37171e-12
-8.60761e-12
-3.48322e-12
-8.64975e-12
-2.59245e-12
-8.68206e-12
-1.69466e-12
-8.70313e-12
-8.01384e-13
-8.69251e-12
-7.69749e-12
-3.59392e-13
-8.26496e-12
1.29349e-13
-1.30413e-12
6.72878e-13
-1.55238e-13
1.20419e-12
1.56244e-13
1.65588e-12
3.30924e-13
2.03574e-12
5.58209e-13
2.3393e-12
8.47911e-13
2.56854e-12
1.21327e-12
2.72325e-12
1.65986e-12
2.80205e-12
2.18971e-12
2.80202e-12
2.80504e-12
2.71816e-12
3.50532e-12
2.54421e-12
4.29247e-12
2.2718e-12
5.16217e-12
1.89285e-12
6.11227e-12
1.39983e-12
7.14202e-12
7.8055e-13
8.24616e-12
2.71257e-14
9.41441e-12
-8.67021e-13
1.06446e-11
-1.91467e-12
1.19274e-11
-3.12613e-12
1.32512e-11
-4.51006e-12
1.46011e-11
-6.07161e-12
1.59626e-11
-7.81669e-12
1.73198e-11
-9.75029e-12
1.86461e-11
-1.18668e-11
1.99163e-11
-1.41641e-11
2.11063e-11
-1.66387e-11
2.21886e-11
-1.92787e-11
2.31308e-11
-2.207e-11
2.3903e-11
-2.49886e-11
2.4469e-11
-2.80069e-11
2.48002e-11
-3.10914e-11
2.48658e-11
-3.41995e-11
2.46326e-11
-3.72861e-11
2.40808e-11
-4.02998e-11
2.31918e-11
-4.31868e-11
2.1958e-11
-4.58871e-11
2.03792e-11
-4.83457e-11
1.8457e-11
-5.05045e-11
1.62221e-11
-5.23106e-11
1.3701e-11
-5.37201e-11
1.09477e-11
-5.4699e-11
8.02124e-12
-5.52228e-11
4.98106e-12
-5.52853e-11
1.90981e-12
-5.48924e-11
-1.11477e-12
-5.40656e-11
-4.01444e-12
-5.28367e-11
-6.69667e-12
-5.12574e-11
-9.15e-12
-4.93854e-11
-1.1261e-11
-4.72905e-11
-1.30061e-11
-4.50453e-11
-1.43624e-11
-4.27227e-11
-1.53231e-11
-4.03893e-11
-1.58989e-11
-3.81106e-11
-1.61131e-11
-3.59318e-11
-1.60105e-11
-3.38991e-11
-1.56308e-11
-3.20466e-11
-1.50276e-11
-3.03836e-11
-1.42622e-11
-2.89232e-11
-1.3382e-11
-2.766e-11
-1.24412e-11
-2.65821e-11
-1.14896e-11
-2.56743e-11
-1.05673e-11
-2.4917e-11
-9.69735e-12
-2.42823e-11
-8.91535e-12
-2.37435e-11
-8.23115e-12
-2.32829e-11
-7.64851e-12
-2.28782e-11
-7.18149e-12
-2.24999e-11
-6.84519e-12
-2.21301e-11
-6.60134e-12
-2.17587e-11
-6.44075e-12
-2.13737e-11
-6.37612e-12
-2.09688e-11
-6.39583e-12
-2.05245e-11
-6.4839e-12
-2.004e-11
-6.60794e-12
-1.95158e-11
-6.76636e-12
-1.89494e-11
-6.95709e-12
-1.8349e-11
-7.16554e-12
-1.77128e-11
-7.38487e-12
-1.70408e-11
-7.61191e-12
-1.63304e-11
-7.83631e-12
-1.55825e-11
-8.04437e-12
-1.48048e-11
-8.23053e-12
-1.40056e-11
-8.41211e-12
-1.31864e-11
-8.58445e-12
-1.23438e-11
-8.7449e-12
-1.14814e-11
-8.88431e-12
-1.06089e-11
-9.00351e-12
-9.7292e-12
-9.11283e-12
-8.84906e-12
-9.2118e-12
-7.96395e-12
-9.30001e-12
-7.07914e-12
-9.36474e-12
-6.18961e-12
-9.41471e-12
-5.29947e-12
-9.4557e-12
-4.40566e-12
-9.50072e-12
-3.51472e-12
-9.54091e-12
-2.62813e-12
-9.56922e-12
-1.73396e-12
-9.59818e-12
-8.50874e-13
-9.57751e-12
-8.55032e-12
-2.06349e-13
-8.05846e-12
2.97787e-13
-1.809e-12
8.55397e-13
-7.13558e-13
1.41032e-12
-3.99114e-13
1.9069e-12
-1.65699e-13
2.3452e-12
1.20067e-13
2.71722e-12
4.75968e-13
3.02154e-12
9.08841e-13
3.25622e-12
1.42507e-12
3.41815e-12
2.02795e-12
3.50235e-12
2.72137e-12
3.50256e-12
3.50577e-12
3.4116e-12
4.38382e-12
3.22019e-12
5.35359e-12
2.91965e-12
6.41269e-12
2.50031e-12
7.56152e-12
1.95044e-12
8.79665e-12
1.25972e-12
1.0106e-11
4.14507e-13
1.14907e-11
-5.95729e-13
1.29382e-11
-1.77955e-12
1.44354e-11
-3.15167e-12
1.59735e-11
-4.72101e-12
1.7532e-11
-6.49371e-12
1.90925e-11
-8.47606e-12
2.06283e-11
-1.06736e-11
2.21137e-11
-1.30847e-11
2.35172e-11
-1.57032e-11
2.4807e-11
-1.85188e-11
2.59463e-11
-2.15123e-11
2.68966e-11
-2.46673e-11
2.76245e-11
-2.79508e-11
2.80846e-11
-3.13299e-11
2.82459e-11
-3.47556e-11
2.80588e-11
-3.81758e-11
2.75011e-11
-4.15339e-11
2.65499e-11
-4.47633e-11
2.51875e-11
-4.77957e-11
2.34122e-11
-5.05674e-11
2.12294e-11
-5.30007e-11
1.86553e-11
-5.50397e-11
1.57394e-11
-5.66301e-11
1.25377e-11
-5.77182e-11
9.10967e-12
-5.82845e-11
5.54839e-12
-5.83103e-11
1.93674e-12
-5.77986e-11
-1.62573e-12
-5.67728e-11
-5.04009e-12
-5.52816e-11
-8.18799e-12
-5.33776e-11
-1.10539e-11
-5.11411e-11
-1.34976e-11
-4.86575e-11
-1.54893e-11
-4.60131e-11
-1.70058e-11
-4.32993e-11
-1.80371e-11
-4.05997e-11
-1.8598e-11
-3.80016e-11
-1.87106e-11
-3.55489e-11
-1.84638e-11
-3.32989e-11
-1.78798e-11