/*--------------------------------*- C++ -*----------------------------------*\
| =========                 |                                                 |
| \\      /  F ield         | OpenFOAM: The Open Source CFD Toolbox           |
|  \\    /   O peration     | Version:  2312                                  |
|   \\  /    A nd           | Website:  www.openfoam.com                      |
|    \\/     M anipulation  |                                                 |
\*---------------------------------------------------------------------------*/
FoamFile
{
    version     2.0;
    format      ascii;
    arch        "LSB;label=32;scalar=64";
    class       volVectorField;
    location    "0.05";
    object      U;
}
// * * * * * * * * * * * * * * * * * * * * * * * * * * * * * * * * * * * * * //

dimensions      [0 1 -1 0 0 0 0];

internalField   nonuniform List<vector> 
10000
(
(4.73319e-06 4.73326e-06 0)
(-4.26898e-06 6.94904e-06 0)
(-4.56244e-06 1.28453e-06 0)
(-7.06708e-06 3.58647e-08 0)
(-6.02673e-06 -2.82016e-07 0)
(-5.37332e-06 -3.235e-07 0)
(-4.72989e-06 -2.62137e-07 0)
(-4.23532e-06 -1.96136e-07 0)
(-3.86079e-06 -1.37309e-07 0)
(-3.5883e-06 -8.7334e-08 0)
(-3.40071e-06 -4.93164e-08 0)
(-3.28213e-06 -1.91456e-08 0)
(-3.22275e-06 5.88502e-09 0)
(-3.21474e-06 2.48664e-08 0)
(-3.25167e-06 4.0719e-08 0)
(-3.3303e-06 5.46156e-08 0)
(-3.45082e-06 6.78724e-08 0)
(-3.6141e-06 8.36025e-08 0)
(-3.82101e-06 1.02516e-07 0)
(-4.07182e-06 1.26678e-07 0)
(-4.3691e-06 1.52952e-07 0)
(-4.71892e-06 1.80378e-07 0)
(-5.12387e-06 2.09045e-07 0)
(-5.58299e-06 2.3911e-07 0)
(-6.09782e-06 2.66098e-07 0)
(-6.66794e-06 2.92824e-07 0)
(-7.28703e-06 3.17453e-07 0)
(-7.94733e-06 3.38867e-07 0)
(-8.64256e-06 3.55361e-07 0)
(-9.36381e-06 3.67624e-07 0)
(-1.00999e-05 3.74302e-07 0)
(-1.08412e-05 3.7499e-07 0)
(-1.15772e-05 3.70046e-07 0)
(-1.22978e-05 3.5964e-07 0)
(-1.29933e-05 3.441e-07 0)
(-1.36546e-05 3.23953e-07 0)
(-1.42735e-05 2.99825e-07 0)
(-1.48421e-05 2.72278e-07 0)
(-1.53538e-05 2.41945e-07 0)
(-1.58027e-05 2.09428e-07 0)
(-1.61835e-05 1.7524e-07 0)
(-1.64921e-05 1.39735e-07 0)
(-1.67256e-05 1.03311e-07 0)
(-1.68823e-05 6.63971e-08 0)
(-1.6961e-05 2.97879e-08 0)
(-1.69623e-05 -6.57207e-09 0)
(-1.68886e-05 -4.20544e-08 0)
(-1.67431e-05 -7.61092e-08 0)
(-1.65306e-05 -1.08174e-07 0)
(-1.6257e-05 -1.37379e-07 0)
(-1.59292e-05 -1.63437e-07 0)
(-1.55549e-05 -1.85981e-07 0)
(-1.51423e-05 -2.04394e-07 0)
(-1.46999e-05 -2.18892e-07 0)
(-1.42362e-05 -2.29012e-07 0)
(-1.37595e-05 -2.3531e-07 0)
(-1.32778e-05 -2.37183e-07 0)
(-1.27986e-05 -2.35455e-07 0)
(-1.23284e-05 -2.30599e-07 0)
(-1.18727e-05 -2.22998e-07 0)
(-1.14361e-05 -2.12836e-07 0)
(-1.1022e-05 -2.0062e-07 0)
(-1.06341e-05 -1.86678e-07 0)
(-1.02735e-05 -1.72415e-07 0)
(-9.93968e-06 -1.58447e-07 0)
(-9.6318e-06 -1.45177e-07 0)
(-9.3488e-06 -1.32642e-07 0)
(-9.08789e-06 -1.21105e-07 0)
(-8.84429e-06 -1.12054e-07 0)
(-8.61368e-06 -1.05573e-07 0)
(-8.39229e-06 -1.02201e-07 0)
(-8.1755e-06 -1.01158e-07 0)
(-7.95531e-06 -1.02231e-07 0)
(-7.72763e-06 -1.07165e-07 0)
(-7.48923e-06 -1.12558e-07 0)
(-7.23543e-06 -1.18808e-07 0)
(-6.96673e-06 -1.26083e-07 0)
(-6.68409e-06 -1.33241e-07 0)
(-6.39049e-06 -1.39422e-07 0)
(-6.09116e-06 -1.43425e-07 0)
(-5.79121e-06 -1.42487e-07 0)
(-5.49656e-06 -1.39486e-07 0)
(-5.21125e-06 -1.34366e-07 0)
(-4.93627e-06 -1.29412e-07 0)
(-4.67328e-06 -1.26321e-07 0)
(-4.41783e-06 -1.24253e-07 0)
(-4.16086e-06 -1.23335e-07 0)
(-3.89768e-06 -1.24936e-07 0)
(-3.62116e-06 -1.28776e-07 0)
(-3.32802e-06 -1.39037e-07 0)
(-3.01972e-06 -1.55139e-07 0)
(-2.69783e-06 -1.71933e-07 0)
(-2.36876e-06 -1.83949e-07 0)
(-2.03751e-06 -1.86294e-07 0)
(-1.70814e-06 -1.80568e-07 0)
(-1.38202e-06 -1.70104e-07 0)
(-1.05824e-06 -1.58256e-07 0)
(-7.39882e-07 -1.48404e-07 0)
(-4.31412e-07 -1.43164e-07 0)
(-1.43704e-07 -1.40097e-07 0)
(6.94898e-06 -4.26882e-06 0)
(6.19168e-06 6.19187e-06 0)
(4.86587e-06 1.4711e-06 0)
(2.63432e-06 7.76816e-08 0)
(1.77327e-06 -4.92621e-07 0)
(1.01909e-06 -5.64869e-07 0)
(5.48441e-07 -5.12013e-07 0)
(2.11535e-07 -4.15026e-07 0)
(-3.7737e-08 -3.14949e-07 0)
(-2.46662e-07 -2.20238e-07 0)
(-4.41364e-07 -1.33988e-07 0)
(-6.32343e-07 -5.64528e-08 0)
(-8.36895e-07 1.42839e-08 0)
(-1.06267e-06 7.89476e-08 0)
(-1.31276e-06 1.37301e-07 0)
(-1.59321e-06 1.93436e-07 0)
(-1.90677e-06 2.49954e-07 0)
(-2.25643e-06 3.10598e-07 0)
(-2.64293e-06 3.76781e-07 0)
(-3.0671e-06 4.51676e-07 0)
(-3.53088e-06 5.2652e-07 0)
(-4.03383e-06 6.04489e-07 0)
(-4.57274e-06 6.84609e-07 0)
(-5.14717e-06 7.63131e-07 0)
(-5.75569e-06 8.37807e-07 0)
(-6.39571e-06 9.07371e-07 0)
(-7.06501e-06 9.70704e-07 0)
(-7.75786e-06 1.02514e-06 0)
(-8.47059e-06 1.06747e-06 0)
(-9.1989e-06 1.09794e-06 0)
(-9.93757e-06 1.1138e-06 0)
(-1.06799e-05 1.11492e-06 0)
(-1.14189e-05 1.10145e-06 0)
(-1.21481e-05 1.07383e-06 0)
(-1.28592e-05 1.03239e-06 0)
(-1.35439e-05 9.77554e-07 0)
(-1.41938e-05 9.10279e-07 0)
(-1.48003e-05 8.31356e-07 0)
(-1.53555e-05 7.42296e-07 0)
(-1.58523e-05 6.44709e-07 0)
(-1.62843e-05 5.40018e-07 0)
(-1.6646e-05 4.29672e-07 0)
(-1.69337e-05 3.15289e-07 0)
(-1.71448e-05 1.98757e-07 0)
(-1.7278e-05 8.23883e-08 0)
(-1.73341e-05 -3.21596e-08 0)
(-1.73152e-05 -1.42635e-07 0)
(-1.72245e-05 -2.47093e-07 0)
(-1.70664e-05 -3.43622e-07 0)
(-1.6847e-05 -4.30769e-07 0)
(-1.65735e-05 -5.07318e-07 0)
(-1.62528e-05 -5.7205e-07 0)
(-1.58931e-05 -6.24248e-07 0)
(-1.55022e-05 -6.63765e-07 0)
(-1.5088e-05 -6.90413e-07 0)
(-1.46574e-05 -7.05091e-07 0)
(-1.42176e-05 -7.08927e-07 0)
(-1.37763e-05 -7.02209e-07 0)
(-1.33379e-05 -6.86246e-07 0)
(-1.29067e-05 -6.62588e-07 0)
(-1.2486e-05 -6.3288e-07 0)
(-1.20783e-05 -5.99106e-07 0)
(-1.16873e-05 -5.62436e-07 0)
(-1.13138e-05 -5.24687e-07 0)
(-1.09556e-05 -4.863e-07 0)
(-1.06116e-05 -4.50222e-07 0)
(-1.02818e-05 -4.17175e-07 0)
(-9.96588e-06 -3.88614e-07 0)
(-9.66045e-06 -3.66366e-07 0)
(-9.36328e-06 -3.50733e-07 0)
(-9.07435e-06 -3.42213e-07 0)
(-8.79253e-06 -3.40796e-07 0)
(-8.51518e-06 -3.45099e-07 0)
(-8.23985e-06 -3.56947e-07 0)
(-7.96652e-06 -3.71685e-07 0)
(-7.69478e-06 -3.88238e-07 0)
(-7.42355e-06 -4.05527e-07 0)
(-7.15233e-06 -4.21379e-07 0)
(-6.88143e-06 -4.32861e-07 0)
(-6.60768e-06 -4.38549e-07 0)
(-6.33195e-06 -4.36775e-07 0)
(-6.05424e-06 -4.30058e-07 0)
(-5.76925e-06 -4.20867e-07 0)
(-5.4735e-06 -4.124e-07 0)
(-5.16637e-06 -4.0897e-07 0)
(-4.84915e-06 -4.10685e-07 0)
(-4.52413e-06 -4.19558e-07 0)
(-4.19331e-06 -4.35625e-07 0)
(-3.85599e-06 -4.54163e-07 0)
(-3.51612e-06 -4.75576e-07 0)
(-3.17825e-06 -4.95524e-07 0)
(-2.84819e-06 -5.10495e-07 0)
(-2.53032e-06 -5.18052e-07 0)
(-2.21857e-06 -5.16325e-07 0)
(-1.90156e-06 -5.09495e-07 0)
(-1.56681e-06 -4.99718e-07 0)
(-1.21276e-06 -4.88973e-07 0)
(-8.51361e-07 -4.80488e-07 0)
(-4.92799e-07 -4.75172e-07 0)
(-1.5516e-07 -4.61721e-07 0)
(1.28448e-06 -4.56219e-06 0)
(1.47092e-06 4.86617e-06 0)
(3.55026e-06 3.55057e-06 0)
(2.33055e-06 1.96299e-06 0)
(1.99372e-06 9.95819e-07 0)
(1.43537e-06 4.98467e-07 0)
(1.03713e-06 2.47639e-07 0)
(7.24097e-07 1.4222e-07 0)
(4.64902e-07 1.22188e-07 0)
(2.3952e-07 1.45909e-07 0)
(2.55979e-08 1.96318e-07 0)
(-1.88427e-07 2.59699e-07 0)
(-4.14922e-07 3.29602e-07 0)
(-6.65054e-07 4.08883e-07 0)
(-9.41283e-07 4.90053e-07 0)
(-1.24555e-06 5.76057e-07 0)
(-1.58277e-06 6.66435e-07 0)
(-1.95596e-06 7.60689e-07 0)
(-2.36462e-06 8.59351e-07 0)
(-2.81504e-06 9.62361e-07 0)
(-3.30485e-06 1.06882e-06 0)
(-3.82765e-06 1.17678e-06 0)
(-4.38788e-06 1.28634e-06 0)
(-4.98157e-06 1.39245e-06 0)
(-5.60681e-06 1.49544e-06 0)
(-6.26248e-06 1.59054e-06 0)
(-6.94474e-06 1.67652e-06 0)
(-7.65099e-06 1.75054e-06 0)
(-8.37699e-06 1.80906e-06 0)
(-9.11898e-06 1.85006e-06 0)
(-9.87173e-06 1.87099e-06 0)
(-1.06279e-05 1.87143e-06 0)
(-1.1381e-05 1.85005e-06 0)
(-1.21245e-05 1.80657e-06 0)
(-1.28505e-05 1.74166e-06 0)
(-1.35505e-05 1.65558e-06 0)
(-1.4216e-05 1.54944e-06 0)
(-1.48377e-05 1.42456e-06 0)
(-1.54071e-05 1.28238e-06 0)
(-1.59171e-05 1.12508e-06 0)
(-1.63612e-05 9.54792e-07 0)
(-1.67339e-05 7.74494e-07 0)
(-1.7031e-05 5.86634e-07 0)
(-1.72495e-05 3.94414e-07 0)
(-1.7388e-05 2.01414e-07 0)
(-1.7447e-05 1.09255e-08 0)
(-1.74287e-05 -1.73506e-07 0)
(-1.73364e-05 -3.48672e-07 0)
(-1.71752e-05 -5.11487e-07 0)
(-1.69513e-05 -6.59166e-07 0)
(-1.66715e-05 -7.89403e-07 0)
(-1.63432e-05 -9.00061e-07 0)
(-1.59751e-05 -9.90101e-07 0)
(-1.55752e-05 -1.05867e-06 0)
(-1.5152e-05 -1.1063e-06 0)
(-1.4714e-05 -1.13415e-06 0)
(-1.42671e-05 -1.14448e-06 0)
(-1.3818e-05 -1.13834e-06 0)
(-1.3373e-05 -1.11807e-06 0)
(-1.29365e-05 -1.08594e-06 0)
(-1.2512e-05 -1.04482e-06 0)
(-1.21014e-05 -9.98085e-07 0)
(-1.17069e-05 -9.48279e-07 0)
(-1.13283e-05 -8.94666e-07 0)
(-1.09654e-05 -8.40588e-07 0)
(-1.0618e-05 -7.89326e-07 0)
(-1.02846e-05 -7.43005e-07 0)
(-9.96531e-06 -7.02464e-07 0)
(-9.65622e-06 -6.68117e-07 0)
(-9.35529e-06 -6.41836e-07 0)
(-9.06355e-06 -6.23048e-07 0)
(-8.78013e-06 -6.11788e-07 0)
(-8.50314e-06 -6.07835e-07 0)
(-8.23018e-06 -6.11544e-07 0)
(-7.95968e-06 -6.20579e-07 0)
(-7.69259e-06 -6.32585e-07 0)
(-7.42904e-06 -6.4703e-07 0)
(-7.16611e-06 -6.63613e-07 0)
(-6.90165e-06 -6.79859e-07 0)
(-6.63254e-06 -6.93304e-07 0)
(-6.35795e-06 -7.04497e-07 0)
(-6.07955e-06 -7.12038e-07 0)
(-5.7939e-06 -7.18525e-07 0)
(-5.49652e-06 -7.25807e-07 0)
(-5.18467e-06 -7.36002e-07 0)
(-4.85972e-06 -7.48683e-07 0)
(-4.52772e-06 -7.62999e-07 0)
(-4.19292e-06 -7.77794e-07 0)
(-3.85738e-06 -7.92299e-07 0)
(-3.52255e-06 -8.08738e-07 0)
(-3.18865e-06 -8.25642e-07 0)
(-2.8585e-06 -8.41623e-07 0)
(-2.53397e-06 -8.52517e-07 0)
(-2.21249e-06 -8.55037e-07 0)
(-1.88693e-06 -8.49582e-07 0)
(-1.54831e-06 -8.37675e-07 0)
(-1.19811e-06 -8.23918e-07 0)
(-8.44701e-07 -8.14809e-07 0)
(-4.91506e-07 -8.06735e-07 0)
(-1.54582e-07 -7.79915e-07 0)
(3.5826e-08 -7.0667e-06 0)
(7.75216e-08 2.63474e-06 0)
(1.96269e-06 2.33097e-06 0)
(1.53416e-06 1.53458e-06 0)
(1.55143e-06 8.97962e-07 0)
(1.26117e-06 5.35581e-07 0)
(1.007e-06 3.53637e-07 0)
(7.77231e-07 2.77889e-07 0)
(5.669e-07 2.72181e-07 0)
(3.60626e-07 3.06117e-07 0)
(1.53061e-07 3.67798e-07 0)
(-6.06718e-08 4.47792e-07 0)
(-2.8506e-07 5.39241e-07 0)
(-5.31618e-07 6.40747e-07 0)
(-8.05413e-07 7.53221e-07 0)
(-1.1068e-06 8.72929e-07 0)
(-1.44267e-06 9.99631e-07 0)
(-1.8151e-06 1.13253e-06 0)
(-2.22402e-06 1.27046e-06 0)
(-2.67092e-06 1.41076e-06 0)
(-3.1587e-06 1.56064e-06 0)
(-3.685e-06 1.70937e-06 0)
(-4.2488e-06 1.85676e-06 0)
(-4.84873e-06 2.00204e-06 0)
(-5.48282e-06 2.13907e-06 0)
(-6.15003e-06 2.26646e-06 0)
(-6.8464e-06 2.38025e-06 0)
(-7.56902e-06 2.47751e-06 0)
(-8.31413e-06 2.55503e-06 0)
(-9.07726e-06 2.60956e-06 0)
(-9.85247e-06 2.63891e-06 0)
(-1.06326e-05 2.64109e-06 0)
(-1.14112e-05 2.614e-06 0)
(-1.21803e-05 2.55686e-06 0)
(-1.29315e-05 2.46977e-06 0)
(-1.36561e-05 2.35303e-06 0)
(-1.43447e-05 2.20746e-06 0)
(-1.49885e-05 2.03477e-06 0)
(-1.55784e-05 1.8365e-06 0)
(-1.61066e-05 1.61519e-06 0)
(-1.65657e-05 1.37412e-06 0)
(-1.69499e-05 1.11715e-06 0)
(-1.72551e-05 8.48483e-07 0)
(-1.74774e-05 5.7271e-07 0)
(-1.76154e-05 2.95514e-07 0)
(-1.767e-05 2.16555e-08 0)
(-1.76433e-05 -2.43296e-07 0)
(-1.75388e-05 -4.94197e-07 0)
(-1.73615e-05 -7.26544e-07 0)
(-1.71181e-05 -9.36004e-07 0)
(-1.68164e-05 -1.11923e-06 0)
(-1.64643e-05 -1.2741e-06 0)
(-1.60713e-05 -1.39897e-06 0)
(-1.56465e-05 -1.49351e-06 0)
(-1.51998e-05 -1.5585e-06 0)
(-1.47396e-05 -1.596e-06 0)
(-1.42729e-05 -1.60772e-06 0)
(-1.3807e-05 -1.5971e-06 0)
(-1.33476e-05 -1.56775e-06 0)
(-1.28992e-05 -1.52318e-06 0)
(-1.2466e-05 -1.46685e-06 0)
(-1.20502e-05 -1.4028e-06 0)
(-1.16509e-05 -1.3348e-06 0)
(-1.12699e-05 -1.26214e-06 0)
(-1.09089e-05 -1.19156e-06 0)
(-1.05657e-05 -1.12478e-06 0)
(-1.02379e-05 -1.06445e-06 0)
(-9.9241e-06 -1.0116e-06 0)
(-9.6222e-06 -9.66381e-07 0)
(-9.32963e-06 -9.31068e-07 0)
(-9.04528e-06 -9.05325e-07 0)
(-8.76932e-06 -8.87783e-07 0)
(-8.50018e-06 -8.78566e-07 0)
(-8.23391e-06 -8.77721e-07 0)
(-7.9681e-06 -8.84154e-07 0)
(-7.70428e-06 -8.95014e-07 0)
(-7.44353e-06 -9.09462e-07 0)
(-7.1829e-06 -9.26677e-07 0)
(-6.91888e-06 -9.46939e-07 0)
(-6.64902e-06 -9.67699e-07 0)
(-6.37368e-06 -9.88369e-07 0)
(-6.09446e-06 -1.00681e-06 0)
(-5.80906e-06 -1.02347e-06 0)
(-5.51286e-06 -1.03961e-06 0)
(-5.20272e-06 -1.05677e-06 0)
(-4.87842e-06 -1.07558e-06 0)
(-4.54468e-06 -1.09392e-06 0)
(-4.20692e-06 -1.10744e-06 0)
(-3.86929e-06 -1.11748e-06 0)
(-3.53434e-06 -1.12698e-06 0)
(-3.20081e-06 -1.1406e-06 0)
(-2.86932e-06 -1.15894e-06 0)
(-2.54057e-06 -1.17766e-06 0)
(-2.21251e-06 -1.19009e-06 0)
(-1.87967e-06 -1.19111e-06 0)
(-1.53599e-06 -1.18114e-06 0)
(-1.18695e-06 -1.16691e-06 0)
(-8.3828e-07 -1.15635e-06 0)
(-4.88873e-07 -1.14275e-06 0)
(-1.5181e-07 -1.09358e-06 0)
(-2.82044e-07 -6.02625e-06 0)
(-4.92775e-07 1.7738e-06 0)
(9.95504e-07 1.99426e-06 0)
(8.97536e-07 1.55195e-06 0)
(1.10613e-06 1.10666e-06 0)
(9.8743e-07 8.04559e-07 0)
(8.59207e-07 6.27675e-07 0)
(7.10357e-07 5.40687e-07 0)
(5.52042e-07 5.14293e-07 0)
(3.87476e-07 5.35026e-07 0)
(2.14556e-07 5.92358e-07 0)
(2.62552e-08 6.77436e-07 0)
(-1.82136e-07 7.83902e-07 0)
(-4.14299e-07 9.06279e-07 0)
(-6.75249e-07 1.04575e-06 0)
(-9.68216e-07 1.19576e-06 0)
(-1.29521e-06 1.35552e-06 0)
(-1.6602e-06 1.52425e-06 0)
(-2.06452e-06 1.70078e-06 0)
(-2.50597e-06 1.88163e-06 0)
(-2.99019e-06 2.0688e-06 0)
(-3.51809e-06 2.25695e-06 0)
(-4.08405e-06 2.44264e-06 0)
(-4.68996e-06 2.62408e-06 0)
(-5.33452e-06 2.79686e-06 0)
(-6.01443e-06 2.95694e-06 0)
(-6.72738e-06 3.10076e-06 0)
(-7.47012e-06 3.2242e-06 0)
(-8.23876e-06 3.32336e-06 0)
(-9.02863e-06 3.39417e-06 0)
(-9.83331e-06 3.43359e-06 0)
(-1.06455e-05 3.4385e-06 0)
(-1.14575e-05 3.40665e-06 0)
(-1.22605e-05 3.33695e-06 0)
(-1.30458e-05 3.22825e-06 0)
(-1.38042e-05 3.08066e-06 0)
(-1.45256e-05 2.8946e-06 0)
(-1.52002e-05 2.67167e-06 0)
(-1.58184e-05 2.41394e-06 0)
(-1.63715e-05 2.12456e-06 0)
(-1.68517e-05 1.80783e-06 0)
(-1.72525e-05 1.46873e-06 0)
(-1.75689e-05 1.11326e-06 0)
(-1.77966e-05 7.48436e-07 0)
(-1.79339e-05 3.80973e-07 0)
(-1.79814e-05 1.8655e-08 0)
(-1.7941e-05 -3.30926e-07 0)
(-1.78169e-05 -6.60561e-07 0)
(-1.76151e-05 -9.64387e-07 0)
(-1.7343e-05 -1.23712e-06 0)
(-1.70095e-05 -1.4744e-06 0)
(-1.66239e-05 -1.67352e-06 0)
(-1.61964e-05 -1.83281e-06 0)
(-1.57375e-05 -1.95191e-06 0)
(-1.52581e-05 -2.03283e-06 0)
(-1.47675e-05 -2.07788e-06 0)
(-1.42733e-05 -2.09028e-06 0)
(-1.37837e-05 -2.0742e-06 0)
(-1.33052e-05 -2.03414e-06 0)
(-1.28421e-05 -1.97526e-06 0)
(-1.23983e-05 -1.90217e-06 0)
(-1.19761e-05 -1.81928e-06 0)
(-1.15727e-05 -1.73121e-06 0)
(-1.11912e-05 -1.64161e-06 0)
(-1.08337e-05 -1.55411e-06 0)
(-1.04957e-05 -1.47204e-06 0)
(-1.01755e-05 -1.3977e-06 0)
(-9.87023e-06 -1.33218e-06 0)
(-9.57759e-06 -1.27612e-06 0)
(-9.29504e-06 -1.23165e-06 0)
(-9.02003e-06 -1.19915e-06 0)
(-8.75225e-06 -1.17636e-06 0)
(-8.4913e-06 -1.16244e-06 0)
(-8.23362e-06 -1.15806e-06 0)
(-7.97479e-06 -1.16365e-06 0)
(-7.71598e-06 -1.17534e-06 0)
(-7.4594e-06 -1.19191e-06 0)
(-7.20318e-06 -1.21171e-06 0)
(-6.94326e-06 -1.23604e-06 0)
(-6.67541e-06 -1.26331e-06 0)
(-6.39907e-06 -1.29231e-06 0)
(-6.1169e-06 -1.31704e-06 0)
(-5.82886e-06 -1.33674e-06 0)
(-5.53151e-06 -1.35167e-06 0)
(-5.22147e-06 -1.36555e-06 0)
(-4.89657e-06 -1.38109e-06 0)
(-4.55821e-06 -1.39899e-06 0)
(-4.21445e-06 -1.41392e-06 0)
(-3.87481e-06 -1.42623e-06 0)
(-3.54393e-06 -1.43876e-06 0)
(-3.21943e-06 -1.45614e-06 0)
(-2.89486e-06 -1.48074e-06 0)
(-2.56461e-06 -1.50723e-06 0)
(-2.22534e-06 -1.52688e-06 0)
(-1.87715e-06 -1.53231e-06 0)
(-1.52325e-06 -1.52442e-06 0)
(-1.17353e-06 -1.51158e-06 0)
(-8.28526e-07 -1.50197e-06 0)
(-4.85067e-07 -1.48525e-06 0)
(-1.47579e-07 -1.40298e-06 0)
(-3.23532e-07 -5.37272e-06 0)
(-5.65019e-07 1.01972e-06 0)
(4.98152e-07 1.43601e-06 0)
(5.3515e-07 1.2618e-06 0)
(8.04036e-07 9.88069e-07 0)
(7.8863e-07 7.89267e-07 0)
(7.48856e-07 6.71163e-07 0)
(6.68742e-07 6.18943e-07 0)
(5.65489e-07 6.21246e-07 0)
(4.42458e-07 6.68634e-07 0)
(2.98874e-07 7.5018e-07 0)
(1.33991e-07 8.59246e-07 0)
(-5.33362e-08 9.91279e-07 0)
(-2.67097e-07 1.14338e-06 0)
(-5.13472e-07 1.31272e-06 0)
(-7.94793e-07 1.49791e-06 0)
(-1.11216e-06 1.69573e-06 0)
(-1.46805e-06 1.90357e-06 0)
(-1.86507e-06 2.12123e-06 0)
(-2.30154e-06 2.34569e-06 0)
(-2.78222e-06 2.57281e-06 0)
(-3.31018e-06 2.80477e-06 0)
(-3.88086e-06 3.03317e-06 0)
(-4.49383e-06 3.25506e-06 0)
(-5.14939e-06 3.46746e-06 0)
(-5.84562e-06 3.66486e-06 0)
(-6.57866e-06 3.8426e-06 0)
(-7.34595e-06 3.99572e-06 0)
(-8.14368e-06 4.11942e-06 0)
(-8.96654e-06 4.20927e-06 0)
(-9.8076e-06 4.26127e-06 0)
(-1.0659e-05 4.27182e-06 0)
(-1.15122e-05 4.23785e-06 0)
(-1.23581e-05 4.15669e-06 0)
(-1.31871e-05 4.0268e-06 0)
(-1.3989e-05 3.84752e-06 0)
(-1.4753e-05 3.61874e-06 0)
(-1.54684e-05 3.34214e-06 0)
(-1.61249e-05 3.02017e-06 0)
(-1.67121e-05 2.65684e-06 0)
(-1.7221e-05 2.25748e-06 0)
(-1.7644e-05 1.82901e-06 0)
(-1.79749e-05 1.37949e-06 0)
(-1.82092e-05 9.18515e-07 0)
(-1.83448e-05 4.54763e-07 0)
(-1.83816e-05 -1.46166e-09 0)
(-1.83223e-05 -4.40773e-07 0)
(-1.81722e-05 -8.54047e-07 0)
(-1.7938e-05 -1.2339e-06 0)
(-1.76281e-05 -1.57284e-06 0)
(-1.72529e-05 -1.86572e-06 0)
(-1.68229e-05 -2.10923e-06 0)
(-1.63499e-05 -2.30214e-06 0)
(-1.58468e-05 -2.44523e-06 0)
(-1.53261e-05 -2.54075e-06 0)
(-1.47975e-05 -2.59061e-06 0)
(-1.42696e-05 -2.60019e-06 0)
(-1.37513e-05 -2.57485e-06 0)
(-1.32492e-05 -2.52001e-06 0)
(-1.27678e-05 -2.44218e-06 0)
(-1.23106e-05 -2.34745e-06 0)
(-1.18797e-05 -2.24076e-06 0)
(-1.14738e-05 -2.12832e-06 0)
(-1.10933e-05 -2.01726e-06 0)
(-1.07398e-05 -1.90906e-06 0)
(-1.04097e-05 -1.80842e-06 0)
(-1.00985e-05 -1.71795e-06 0)
(-9.80285e-06 -1.63849e-06 0)
(-9.52192e-06 -1.57092e-06 0)
(-9.25283e-06 -1.51734e-06 0)
(-8.99009e-06 -1.47964e-06 0)
(-8.73266e-06 -1.45475e-06 0)
(-8.48188e-06 -1.44075e-06 0)
(-8.23509e-06 -1.43754e-06 0)
(-7.98536e-06 -1.44631e-06 0)
(-7.73254e-06 -1.46378e-06 0)
(-7.47994e-06 -1.48677e-06 0)
(-7.22714e-06 -1.51029e-06 0)
(-6.97065e-06 -1.53598e-06 0)
(-6.70552e-06 -1.56368e-06 0)
(-6.42768e-06 -1.59331e-06 0)
(-6.13918e-06 -1.62027e-06 0)
(-5.84395e-06 -1.63993e-06 0)
(-5.5419e-06 -1.65157e-06 0)
(-5.2323e-06 -1.66064e-06 0)
(-4.91194e-06 -1.67418e-06 0)
(-4.57752e-06 -1.69641e-06 0)
(-4.2341e-06 -1.72442e-06 0)
(-3.89407e-06 -1.75236e-06 0)
(-3.56421e-06 -1.77724e-06 0)
(-3.24279e-06 -1.79865e-06 0)
(-2.92043e-06 -1.82063e-06 0)
(-2.58674e-06 -1.84142e-06 0)
(-2.23761e-06 -1.85795e-06 0)
(-1.8772e-06 -1.86494e-06 0)
(-1.51531e-06 -1.86413e-06 0)
(-1.16553e-06 -1.86087e-06 0)
(-8.22016e-07 -1.8569e-06 0)
(-4.80651e-07 -1.8424e-06 0)
(-1.41722e-07 -1.71027e-06 0)
(-2.62171e-07 -4.7292e-06 0)
(-5.12162e-07 5.49183e-07 0)
(2.47322e-07 1.03787e-06 0)
(3.53202e-07 1.00776e-06 0)
(6.27152e-07 8.59952e-07 0)
(6.70524e-07 7.49598e-07 0)
(6.89225e-07 6.89967e-07 0)
(6.60767e-07 6.78613e-07 0)
(6.0203e-07 7.11721e-07 0)
(5.1668e-07 7.83074e-07 0)
(4.05414e-07 8.88536e-07 0)
(2.67582e-07 1.02371e-06 0)
(1.02212e-07 1.18426e-06 0)
(-9.26584e-08 1.36619e-06 0)
(-3.20537e-07 1.56761e-06 0)
(-5.85041e-07 1.78848e-06 0)
(-8.89417e-07 2.02493e-06 0)
(-1.23459e-06 2.27456e-06 0)
(-1.62231e-06 2.53545e-06 0)
(-2.05431e-06 2.80522e-06 0)
(-2.53104e-06 3.07785e-06 0)
(-3.05767e-06 3.35454e-06 0)
(-3.63371e-06 3.629e-06 0)
(-4.25563e-06 3.89639e-06 0)
(-4.92469e-06 4.15186e-06 0)
(-5.63926e-06 4.39043e-06 0)
(-6.39649e-06 4.60608e-06 0)
(-7.19326e-06 4.79316e-06 0)
(-8.02517e-06 4.94627e-06 0)
(-8.88673e-06 5.06006e-06 0)
(-9.77071e-06 5.12939e-06 0)
(-1.06689e-05 5.14956e-06 0)
(-1.15725e-05 5.11601e-06 0)
(-1.24715e-05 5.02504e-06 0)
(-1.33549e-05 4.87405e-06 0)
(-1.42122e-05 4.66135e-06 0)
(-1.50309e-05 4.387e-06 0)
(-1.57986e-05 4.05246e-06 0)
(-1.65037e-05 3.66083e-06 0)
(-1.71341e-05 3.21741e-06 0)
(-1.76794e-05 2.72914e-06 0)
(-1.81304e-05 2.20436e-06 0)
(-1.84794e-05 1.65401e-06 0)
(-1.87213e-05 1.08897e-06 0)
(-1.88539e-05 5.21367e-07 0)
(-1.8877e-05 -3.62406e-08 0)
(-1.87936e-05 -5.71792e-07 0)
(-1.86101e-05 -1.07402e-06 0)
(-1.8334e-05 -1.53406e-06 0)
(-1.79749e-05 -1.94294e-06 0)
(-1.7546e-05 -2.29457e-06 0)
(-1.70604e-05 -2.58516e-06 0)
(-1.65324e-05 -2.81317e-06 0)
(-1.59762e-05 -2.98024e-06 0)
(-1.54036e-05 -3.08838e-06 0)
(-1.48271e-05 -3.14053e-06 0)
(-1.42576e-05 -3.14362e-06 0)
(-1.37036e-05 -3.10391e-06 0)
(-1.31726e-05 -3.02853e-06 0)
(-1.26696e-05 -2.92512e-06 0)
(-1.2197e-05 -2.80156e-06 0)
(-1.1757e-05 -2.66457e-06 0)
(-1.13493e-05 -2.52167e-06 0)
(-1.0972e-05 -2.3824e-06 0)
(-1.06249e-05 -2.24896e-06 0)
(-1.03047e-05 -2.12466e-06 0)
(-1.00056e-05 -2.01359e-06 0)
(-9.7233e-06 -1.91806e-06 0)
(-9.45656e-06 -1.83862e-06 0)
(-9.20388e-06 -1.77605e-06 0)
(-8.95755e-06 -1.73298e-06 0)
(-8.71348e-06 -1.7073e-06 0)
(-8.47421e-06 -1.69488e-06 0)
(-8.23931e-06 -1.69389e-06 0)
(-8.00116e-06 -1.70627e-06 0)
(-7.75657e-06 -1.73045e-06 0)
(-7.50604e-06 -1.76042e-06 0)
(-7.25252e-06 -1.78849e-06 0)
(-6.99679e-06 -1.81596e-06 0)
(-6.73289e-06 -1.84364e-06 0)
(-6.4558e-06 -1.87257e-06 0)
(-6.16367e-06 -1.90375e-06 0)
(-5.8603e-06 -1.93199e-06 0)
(-5.55235e-06 -1.95457e-06 0)
(-5.2442e-06 -1.972e-06 0)
(-4.93246e-06 -1.99122e-06 0)
(-4.60856e-06 -2.01917e-06 0)
(-4.27049e-06 -2.05629e-06 0)
(-3.92771e-06 -2.09608e-06 0)
(-3.5903e-06 -2.12853e-06 0)
(-3.2629e-06 -2.15084e-06 0)
(-2.93771e-06 -2.16582e-06 0)
(-2.60201e-06 -2.17791e-06 0)
(-2.24892e-06 -2.18986e-06 0)
(-1.88339e-06 -2.2009e-06 0)
(-1.51929e-06 -2.21117e-06 0)
(-1.1672e-06 -2.22082e-06 0)
(-8.19321e-07 -2.22291e-06 0)
(-4.75191e-07 -2.21352e-06 0)
(-1.36027e-07 -2.01536e-06 0)
(-1.96171e-07 -4.23453e-06 0)
(-4.15184e-07 2.1238e-07 0)
(1.41917e-07 7.24936e-07 0)
(2.77464e-07 7.78107e-07 0)
(5.4015e-07 7.11202e-07 0)
(6.18303e-07 6.69587e-07 0)
(6.77872e-07 6.61614e-07 0)
(6.90534e-07 6.91378e-07 0)
(6.69997e-07 7.58284e-07 0)
(6.19324e-07 8.6009e-07 0)
(5.39559e-07 9.94546e-07 0)
(4.29771e-07 1.15893e-06 0)
(2.89201e-07 1.35029e-06 0)
(1.16305e-07 1.56608e-06 0)
(-9.11295e-08 1.80408e-06 0)
(-3.37421e-07 2.06263e-06 0)
(-6.26055e-07 2.34005e-06 0)
(-9.57526e-07 2.63365e-06 0)
(-1.3344e-06 2.94033e-06 0)
(-1.75915e-06 3.25745e-06 0)
(-2.23291e-06 3.58086e-06 0)
(-2.75904e-06 3.90571e-06 0)
(-3.339e-06 4.23078e-06 0)
(-3.97096e-06 4.5478e-06 0)
(-4.65535e-06 4.85167e-06 0)
(-5.39141e-06 5.13679e-06 0)
(-6.17593e-06 5.3964e-06 0)
(-7.00575e-06 5.6239e-06 0)
(-7.87677e-06 5.81273e-06 0)
(-8.7834e-06 5.95619e-06 0)
(-9.71808e-06 6.04798e-06 0)
(-1.06723e-05 6.08151e-06 0)
(-1.16367e-05 6.05097e-06 0)
(-1.26e-05 5.95171e-06 0)
(-1.35507e-05 5.77973e-06 0)
(-1.4476e-05 5.5325e-06 0)
(-1.53619e-05 5.21028e-06 0)
(-1.61946e-05 4.81443e-06 0)
(-1.69599e-05 4.3488e-06 0)
(-1.76437e-05 3.81962e-06 0)
(-1.8234e-05 3.23559e-06 0)
(-1.87191e-05 2.60738e-06 0)
(-1.90903e-05 1.94791e-06 0)
(-1.93419e-05 1.27036e-06 0)
(-1.94701e-05 5.89726e-07 0)
(-1.94748e-05 -7.86737e-08 0)
(-1.93601e-05 -7.2014e-07 0)
(-1.91345e-05 -1.32112e-06 0)
(-1.8807e-05 -1.87038e-06 0)
(-1.83887e-05 -2.35725e-06 0)
(-1.78951e-05 -2.77447e-06 0)
(-1.73416e-05 -3.11713e-06 0)
(-1.67451e-05 -3.38331e-06 0)
(-1.61221e-05 -3.57388e-06 0)
(-1.54865e-05 -3.69141e-06 0)
(-1.48528e-05 -3.74118e-06 0)
(-1.42331e-05 -3.73043e-06 0)
(-1.36363e-05 -3.66772e-06 0)
(-1.30705e-05 -3.56274e-06 0)
(-1.25409e-05 -3.42477e-06 0)
(-1.20501e-05 -3.2634e-06 0)
(-1.15999e-05 -3.08863e-06 0)
(-1.11916e-05 -2.90886e-06 0)
(-1.08207e-05 -2.73495e-06 0)
(-1.04822e-05 -2.56965e-06 0)
(-1.01744e-05 -2.41626e-06 0)
(-9.89195e-06 -2.28055e-06 0)
(-9.62797e-06 -2.16579e-06 0)
(-9.38003e-06 -2.07185e-06 0)
(-9.14732e-06 -1.99865e-06 0)
(-8.92147e-06 -1.94823e-06 0)
(-8.69469e-06 -1.92019e-06 0)
(-8.46861e-06 -1.90905e-06 0)
(-8.24663e-06 -1.90987e-06 0)
(-8.02207e-06 -1.92355e-06 0)
(-7.78684e-06 -1.95223e-06 0)
(-7.53813e-06 -1.98851e-06 0)
(-7.28282e-06 -2.02599e-06 0)
(-7.02595e-06 -2.06143e-06 0)
(-6.76228e-06 -2.09606e-06 0)
(-6.48794e-06 -2.13334e-06 0)
(-6.19874e-06 -2.1762e-06 0)
(-5.89492e-06 -2.22246e-06 0)
(-5.58204e-06 -2.26675e-06 0)
(-5.26908e-06 -2.30237e-06 0)
(-4.95923e-06 -2.33178e-06 0)
(-4.6427e-06 -2.3624e-06 0)
(-4.31112e-06 -2.40001e-06 0)
(-3.96642e-06 -2.44226e-06 0)
(-3.61907e-06 -2.47905e-06 0)
(-3.28017e-06 -2.50355e-06 0)
(-2.94759e-06 -2.51604e-06 0)
(-2.61086e-06 -2.52364e-06 0)
(-2.26067e-06 -2.53179e-06 0)
(-1.89858e-06 -2.54635e-06 0)
(-1.53533e-06 -2.5655e-06 0)
(-1.17787e-06 -2.58522e-06 0)
(-8.22581e-07 -2.59257e-06 0)
(-4.72531e-07 -2.58973e-06 0)
(-1.35234e-07 -2.3192e-06 0)
(-1.37342e-07 -3.85992e-06 0)
(-3.15106e-07 -3.68139e-08 0)
(1.21898e-07 4.6585e-07 0)
(2.71751e-07 5.67861e-07 0)
(5.13739e-07 5.52995e-07 0)
(6.20609e-07 5.66431e-07 0)
(7.10978e-07 6.02979e-07 0)
(7.57437e-07 6.70937e-07 0)
(7.70759e-07 7.71707e-07 0)
(7.52968e-07 9.05295e-07 0)
(7.04286e-07 1.0706e-06 0)
(6.23357e-07 1.26633e-06 0)
(5.09402e-07 1.49068e-06 0)
(3.61174e-07 1.74211e-06 0)
(1.76054e-07 2.01869e-06 0)
(-4.90231e-08 2.31762e-06 0)
(-3.18367e-07 2.63834e-06 0)
(-6.34316e-07 2.97861e-06 0)
(-9.98522e-07 3.33457e-06 0)
(-1.41379e-06 3.70329e-06 0)
(-1.88279e-06 4.08036e-06 0)
(-2.40776e-06 4.46035e-06 0)
(-2.99163e-06 4.83941e-06 0)
(-3.63475e-06 5.21178e-06 0)
(-4.33571e-06 5.57057e-06 0)
(-5.09454e-06 5.90915e-06 0)
(-5.90937e-06 6.22028e-06 0)
(-6.77692e-06 6.49532e-06 0)
(-7.69288e-06 6.72662e-06 0)
(-8.65146e-06 6.9063e-06 0)
(-9.64536e-06 7.0264e-06 0)
(-1.06658e-05 7.07826e-06 0)
(-1.17023e-05 7.05461e-06 0)
(-1.27427e-05 6.9493e-06 0)
(-1.37741e-05 6.7574e-06 0)
(-1.47816e-05 6.47604e-06 0)
(-1.57489e-05 6.10453e-06 0)
(-1.66601e-05 5.6443e-06 0)
(-1.74984e-05 5.10016e-06 0)
(-1.82473e-05 4.47939e-06 0)
(-1.88916e-05 3.79199e-06 0)
(-1.94181e-05 3.05102e-06 0)
(-1.98164e-05 2.27097e-06 0)
(-2.00795e-05 1.46836e-06 0)
(-2.02029e-05 6.61038e-07 0)
(-2.01869e-05 -1.33085e-07 0)
(-2.00361e-05 -8.96251e-07 0)
(-1.97604e-05 -1.6117e-06 0)
(-1.93702e-05 -2.26382e-06 0)
(-1.88791e-05 -2.84024e-06 0)
(-1.83059e-05 -3.33169e-06 0)
(-1.76693e-05 -3.7311e-06 0)
(-1.69893e-05 -4.03614e-06 0)
(-1.62843e-05 -4.247e-06 0)
(-1.5571e-05 -4.36757e-06 0)
(-1.48662e-05 -4.40585e-06 0)
(-1.41842e-05 -4.37035e-06 0)
(-1.3536e-05 -4.27313e-06 0)
(-1.29297e-05 -4.12655e-06 0)
(-1.23703e-05 -3.94298e-06 0)
(-1.18609e-05 -3.73486e-06 0)
(-1.14025e-05 -3.51417e-06 0)
(-1.09957e-05 -3.29145e-06 0)
(-1.06329e-05 -3.07514e-06 0)
(-1.03063e-05 -2.87191e-06 0)
(-1.00157e-05 -2.68659e-06 0)
(-9.75525e-06 -2.5244e-06 0)
(-9.51471e-06 -2.38938e-06 0)
(-9.28955e-06 -2.28019e-06 0)
(-9.08039e-06 -2.19497e-06 0)
(-8.87923e-06 -2.13577e-06 0)
(-8.67445e-06 -2.10406e-06 0)
(-8.46405e-06 -2.09403e-06 0)
(-8.25396e-06 -2.09679e-06 0)
(-8.04368e-06 -2.11148e-06 0)
(-7.8217e-06 -2.14424e-06 0)
(-7.57996e-06 -2.19e-06 0)
(-7.32561e-06 -2.24403e-06 0)
(-7.06702e-06 -2.29598e-06 0)
(-6.80495e-06 -2.34652e-06 0)
(-6.53609e-06 -2.39712e-06 0)
(-6.25294e-06 -2.45213e-06 0)
(-5.951e-06 -2.51407e-06 0)
(-5.6324e-06 -2.57745e-06 0)
(-5.30936e-06 -2.63385e-06 0)
(-4.99262e-06 -2.67563e-06 0)
(-4.67691e-06 -2.70936e-06 0)
(-4.35047e-06 -2.74374e-06 0)
(-4.00688e-06 -2.78328e-06 0)
(-3.6517e-06 -2.82288e-06 0)
(-3.29999e-06 -2.85272e-06 0)
(-2.95789e-06 -2.87032e-06 0)
(-2.61785e-06 -2.87904e-06 0)
(-2.27172e-06 -2.88749e-06 0)
(-1.91718e-06 -2.90262e-06 0)
(-1.55826e-06 -2.92474e-06 0)
(-1.19473e-06 -2.94728e-06 0)
(-8.32095e-07 -2.95809e-06 0)
(-4.77643e-07 -2.95994e-06 0)
(-1.42863e-07 -2.62354e-06 0)
(-8.73805e-08 -3.58734e-06 0)
(-2.20388e-07 -2.45637e-07 0)
(1.45639e-07 2.40566e-07 0)
(3.05696e-07 3.61666e-07 0)
(5.34471e-07 3.88558e-07 0)
(6.67989e-07 4.43497e-07 0)
(7.82331e-07 5.17722e-07 0)
(8.59247e-07 6.20355e-07 0)
(9.04354e-07 7.54027e-07 0)
(9.18227e-07 9.19284e-07 0)
(9.00617e-07 1.11619e-06 0)
(8.49874e-07 1.34468e-06 0)
(7.65002e-07 1.60392e-06 0)
(6.44355e-07 1.89268e-06 0)
(4.84426e-07 2.20942e-06 0)
(2.82265e-07 2.55182e-06 0)
(3.49649e-08 2.91867e-06 0)
(-2.61282e-07 3.30757e-06 0)
(-6.09734e-07 3.71595e-06 0)
(-1.01338e-06 4.14012e-06 0)
(-1.47585e-06 4.57496e-06 0)
(-2e-06 5.01539e-06 0)
(-2.58759e-06 5.4549e-06 0)
(-3.23981e-06 5.88907e-06 0)
(-3.95799e-06 6.30996e-06 0)
(-4.7417e-06 6.71009e-06 0)
(-5.58977e-06 7.08045e-06 0)
(-6.4994e-06 7.41129e-06 0)
(-7.46579e-06 7.69375e-06 0)
(-8.48362e-06 7.91808e-06 0)
(-9.5461e-06 8.07367e-06 0)
(-1.06441e-05 8.15063e-06 0)
(-1.17656e-05 8.13968e-06 0)
(-1.28972e-05 8.03255e-06 0)
(-1.40239e-05 7.82342e-06 0)
(-1.51288e-05 7.50878e-06 0)
(-1.61935e-05 7.08727e-06 0)
(-1.71988e-05 6.56033e-06 0)
(-1.81247e-05 5.93326e-06 0)
(-1.89518e-05 5.21372e-06 0)
(-1.96623e-05 4.413e-06 0)
(-2.02401e-05 3.54569e-06 0)
(-2.06729e-05 2.62866e-06 0)
(-2.09518e-05 1.68198e-06 0)
(-2.10715e-05 7.27112e-07 0)
(-2.10321e-05 -2.14282e-07 0)
(-2.08387e-05 -1.12009e-06 0)
(-2.05021e-05 -1.96929e-06 0)
(-2.00356e-05 -2.7407e-06 0)
(-1.94567e-05 -3.41937e-06 0)
(-1.87861e-05 -3.99214e-06 0)
(-1.80461e-05 -4.45019e-06 0)
(-1.7261e-05 -4.79108e-06 0)
(-1.64537e-05 -5.01571e-06 0)
(-1.56454e-05 -5.13017e-06 0)
(-1.48557e-05 -5.14551e-06 0)
(-1.41005e-05 -5.07321e-06 0)
(-1.33926e-05 -4.92832e-06 0)
(-1.27404e-05 -4.72747e-06 0)
(-1.21493e-05 -4.48582e-06 0)
(-1.16214e-05 -4.22013e-06 0)
(-1.11566e-05 -3.9445e-06 0)
(-1.07527e-05 -3.67041e-06 0)
(-1.04012e-05 -3.40639e-06 0)
(-1.00937e-05 -3.16286e-06 0)
(-9.827e-06 -2.94413e-06 0)
(-9.59485e-06 -2.75457e-06 0)
(-9.38389e-06 -2.59925e-06 0)
(-9.18575e-06 -2.4771e-06 0)
(-9.00304e-06 -2.38224e-06 0)
(-8.83072e-06 -2.31564e-06 0)
(-8.6531e-06 -2.28245e-06 0)
(-8.4615e-06 -2.27616e-06 0)
(-8.26425e-06 -2.28576e-06 0)
(-8.0697e-06 -2.30793e-06 0)
(-7.86553e-06 -2.34697e-06 0)
(-7.63809e-06 -2.40357e-06 0)
(-7.38898e-06 -2.47464e-06 0)
(-7.12861e-06 -2.54756e-06 0)
(-6.86359e-06 -2.61867e-06 0)
(-6.59372e-06 -2.68318e-06 0)
(-6.31585e-06 -2.74563e-06 0)
(-6.02039e-06 -2.81255e-06 0)
(-5.70196e-06 -2.88445e-06 0)
(-5.3674e-06 -2.95444e-06 0)
(-5.03488e-06 -3.00975e-06 0)
(-4.71094e-06 -3.05028e-06 0)
(-4.38516e-06 -3.08381e-06 0)
(-4.04569e-06 -3.121e-06 0)
(-3.68862e-06 -3.16095e-06 0)
(-3.32771e-06 -3.19733e-06 0)
(-2.97401e-06 -3.2233e-06 0)
(-2.62813e-06 -3.23878e-06 0)
(-2.28434e-06 -3.25165e-06 0)
(-1.93591e-06 -3.26673e-06 0)