/*--------------------------------*- C++ -*----------------------------------*\
| =========                 |                                                 |
| \\      /  F ield         | OpenFOAM: The Open Source CFD Toolbox           |
|  \\    /   O peration     | Version:  2312                                  |
|   \\  /    A nd           | Website:  www.openfoam.com                      |
|    \\/     M anipulation  |                                                 |
\*---------------------------------------------------------------------------*/
FoamFile
{
    version     2.0;
    format      ascii;
    arch        "LSB;label=32;scalar=64";
    class       surfaceScalarField;
    location    "0.1";
    object      alphaPhi0.water;
}
// * * * * * * * * * * * * * * * * * * * * * * * * * * * * * * * * * * * * * //

dimensions      [0 3 -1 0 0 0 0];

oriented        oriented;

internalField   nonuniform List<scalar> 
19800
(
1.81517e-15
2.05359e-16
-1.01725e-11
1.01732e-11
-1.3415e-11
3.2411e-12
-1.35205e-11
1.04148e-13
-1.22833e-11
-1.23862e-12
-1.0799e-11
-1.48477e-12
-9.44339e-12
-1.35475e-12
-8.28925e-12
-1.15278e-12
-7.30666e-12
-9.8169e-13
-6.45261e-12
-8.54011e-13
-5.69121e-12
-7.6192e-13
-4.9895e-12
-7.02112e-13
-4.31626e-12
-6.73099e-13
-3.65505e-12
-6.60613e-13
-2.98034e-12
-6.74048e-13
-2.29736e-12
-6.82663e-13
-1.60374e-12
-6.93671e-13
-9.0725e-13
-6.96604e-13
-2.11365e-13
-6.95784e-13
4.71874e-13
-6.82915e-13
1.13448e-12
-6.62327e-13
1.76337e-12
-6.28944e-13
2.35888e-12
-5.95861e-13
2.91342e-12
-5.54944e-13
3.4352e-12
-5.21977e-13
3.92563e-12
-4.90413e-13
4.40115e-12
-4.75443e-13
4.86869e-12
-4.67586e-13
5.35874e-12
-4.90114e-13
5.88581e-12
-5.26883e-13
6.46981e-12
-5.83354e-13
7.13691e-12
-6.66109e-13
7.90776e-12
-7.699e-13
8.79935e-12
-8.91052e-13
9.82988e-12
-1.03046e-12
1.10285e-11
-1.19874e-12
1.24059e-11
-1.37736e-12
1.39711e-11
-1.56514e-12
1.57347e-11
-1.76377e-12
1.76854e-11
-1.95075e-12
1.9836e-11
-2.15069e-12
2.21815e-11
-2.34559e-12
2.47099e-11
-2.52795e-12
2.74008e-11
-2.68999e-12
3.02252e-11
-2.82431e-12
3.31713e-11
-2.9469e-12
3.62079e-11
-3.03677e-12
3.92985e-11
-3.0898e-12
4.24161e-11
-3.11691e-12
4.55198e-11
-3.10314e-12
4.8576e-11
-3.05548e-12
5.15478e-11
-2.97168e-12
5.44001e-11
-2.85255e-12
5.70998e-11
-2.70004e-12
5.96156e-11
-2.51612e-12
6.19158e-11
-2.30014e-12
6.39839e-11
-2.06819e-12
6.57957e-11
-1.8122e-12
6.73336e-11
-1.53868e-12
6.85796e-11
-1.24664e-12
6.95325e-11
-9.52365e-13
7.01923e-11
-6.59339e-13
7.05567e-11
-3.6448e-13
7.06142e-11
-5.78056e-14
7.03994e-11
2.14537e-13
6.99285e-11
4.71018e-13
6.91883e-11
7.40046e-13
6.82282e-11
9.59607e-13
6.70538e-11
1.17441e-12
6.56824e-11
1.37183e-12
6.41358e-11
1.54589e-12
6.24516e-11
1.68402e-12
6.0645e-11
1.80576e-12
5.87362e-11
1.90876e-12
5.67457e-11
1.99149e-12
5.46889e-11
2.05592e-12
5.25871e-11
2.10178e-12
5.04582e-11
2.12848e-12
4.83013e-11
2.15558e-12
4.61256e-11
2.17683e-12
4.39301e-11
2.19408e-12
4.17281e-11
2.20136e-12
3.95005e-11
2.22817e-12
3.72224e-11
2.27711e-12
3.48641e-11
2.35993e-12
3.24098e-11
2.45301e-12
2.98959e-11
2.51376e-12
2.73715e-11
2.52572e-12
2.48817e-11
2.49038e-12
2.24584e-11
2.42451e-12
2.01038e-11
2.35423e-12
1.78138e-11
2.28908e-12
1.55877e-11
2.22765e-12
1.34005e-11
2.18679e-12
1.12113e-11
2.18677e-12
8.9917e-12
2.21838e-12
6.72121e-12
2.27066e-12
4.40243e-12
2.32012e-12
2.07454e-12
2.3282e-12
2.07342e-12
1.01745e-11
-1.01754e-11
1.0173e-11
1.01709e-11
6.59462e-12
6.81702e-12
3.77067e-12
2.92793e-12
1.91902e-12
6.13955e-13
7.24882e-13
-2.89528e-13
-1.63068e-14
-6.12601e-13
-4.27594e-13
-7.40812e-13
-6.4646e-13
-7.62615e-13
-7.62188e-13
-7.38606e-13
-8.1566e-13
-7.08927e-13
-8.4561e-13
-6.72295e-13
-8.48246e-13
-6.7003e-13
-8.39319e-13
-6.68783e-13
-8.31716e-13
-6.80987e-13
-8.1853e-13
-6.95417e-13
-7.97052e-13
-7.14796e-13
-7.66902e-13
-7.26306e-13
-7.30382e-13
-7.318e-13
-6.95378e-13
-7.17623e-13
-6.52257e-13
-7.05565e-13
-5.93019e-13
-6.88608e-13
-5.11445e-13
-6.77844e-13
-4.0716e-13
-6.59386e-13
-2.70538e-13
-6.58517e-13
-8.94339e-14
-6.71379e-13
1.42884e-13
-7.07679e-13
4.61455e-13
-7.85993e-13
8.50317e-13
-8.78438e-13
1.32981e-12
-1.00534e-12
1.92293e-12
-1.17515e-12
2.64713e-12
-1.38913e-12
3.51075e-12
-1.63281e-12
4.54352e-12
-1.92358e-12
5.71862e-12
-2.20562e-12
7.11424e-12
-2.59445e-12
8.70858e-12
-2.97165e-12
1.05159e-11
-3.37249e-12
1.25406e-11
-3.78872e-12
1.47661e-11
-4.17634e-12
1.72277e-11
-4.61133e-12
1.99259e-11
-5.04257e-12
2.28257e-11
-5.42745e-12
2.59209e-11
-5.7851e-12
2.9189e-11
-6.09217e-12
3.26121e-11
-6.37026e-12
3.61605e-11
-6.58511e-12
3.98024e-11
-6.72982e-12
4.34932e-11
-6.80597e-12
4.71943e-11
-6.80424e-12
5.08627e-11
-6.72434e-12
5.4454e-11
-6.56315e-12
5.79245e-11
-6.32264e-12
6.1231e-11
-6.00615e-12
6.43328e-11
-5.61865e-12
6.71955e-11
-5.16397e-12
6.97861e-11
-4.6594e-12
7.20826e-11
-4.10853e-12
7.40574e-11
-3.51321e-12
7.56957e-11
-2.88605e-12
7.69902e-11
-2.24737e-12
7.79397e-11
-1.60834e-12
7.85345e-11
-9.58787e-13
7.8799e-11
-3.2239e-13
7.87139e-11
2.98757e-13
7.8341e-11
8.43714e-13
7.7669e-11
1.41265e-12
7.67392e-11
1.88908e-12
7.55518e-11
2.36039e-12
7.41381e-11
2.7855e-12
7.25102e-11
3.17327e-12
7.07093e-11
3.48581e-12
6.87561e-11
3.75907e-12
6.66679e-11
3.99572e-12
6.44619e-11
4.19825e-12
6.21526e-11
4.3645e-12
5.97563e-11
4.49631e-12
5.72874e-11
4.59681e-12
5.47561e-11
4.68502e-12
5.21652e-11
4.76821e-12
4.95197e-11
4.8407e-12
4.68384e-11
4.88074e-12
4.41424e-11
4.9239e-12
4.14388e-11
4.9793e-12
3.87465e-11
5.05262e-12
3.60858e-11
5.11451e-12
3.34506e-11
5.14842e-12
3.08272e-11
5.15001e-12
2.82112e-11
5.10869e-12
2.5601e-11
5.03595e-12
2.29777e-11
4.97786e-12
2.03563e-11
4.90925e-12
1.77498e-11
4.83335e-12
1.51545e-11
4.7829e-12
1.25708e-11
4.77099e-12
9.99564e-12
4.79207e-12
7.43219e-12
4.83015e-12
4.86493e-12
4.88373e-12
2.29605e-12
4.89467e-12
4.36828e-12
3.2422e-12
-1.3419e-11
6.81904e-12
6.59159e-12
6.8184e-12
6.81544e-12
5.63404e-12
4.11147e-12
4.23825e-12
2.01006e-12
3.12458e-12
8.24769e-13
2.29812e-12
2.14277e-13
1.70866e-12
-1.51253e-13
1.28117e-12
-3.35257e-13
9.64048e-13
-4.21721e-13
7.33999e-13
-4.79103e-13
5.57068e-13
-4.95389e-13
4.00244e-13
-5.12881e-13
2.70918e-13
-5.38824e-13
1.49629e-13
-5.58895e-13
3.45376e-14
-5.79496e-13
-8.57137e-14
-5.9377e-13
-2.02622e-13
-6.08664e-13
-3.14585e-13
-6.19136e-13
-4.06297e-13
-6.25301e-13
-4.86877e-13
-6.24557e-13
-5.45619e-13
-6.29679e-13
-5.77229e-13
-6.46279e-13
-5.64813e-13
-6.71955e-13
-5.0546e-13
-7.17954e-13
-3.86857e-13
-7.89892e-13
-1.988e-13
-8.95493e-13
5.76644e-14
-1.04215e-12
4.09808e-13
-1.23026e-12
8.54299e-13
-1.44945e-12
1.41621e-12
-1.73657e-12
2.11224e-12
-2.08459e-12
2.95387e-12
-2.47393e-12
3.95802e-12
-2.92739e-12
5.1097e-12
-3.35724e-12
6.47794e-12
-3.96286e-12
8.04885e-12
-4.54262e-12
9.83156e-12
-5.15476e-12
1.1845e-11
-5.8014e-12
1.40774e-11
-6.40786e-12
1.65359e-11
-7.06855e-12
1.92455e-11
-7.75084e-12
2.21753e-11
-8.35716e-12
2.53112e-11
-8.9217e-12
2.86276e-11
-9.4081e-12
3.21167e-11
-9.85839e-12
3.5743e-11
-1.0211e-11
3.94678e-11
-1.04541e-11
4.32503e-11
-1.05877e-11
4.70466e-11
-1.06004e-11
5.08138e-11
-1.04913e-11
5.45023e-11
-1.02509e-11
5.80659e-11
-9.88568e-12
6.14602e-11
-9.39991e-12
6.46425e-11
-8.80129e-12
6.75756e-11
-8.09795e-12
7.02262e-11
-7.3109e-12
7.25694e-11
-6.45205e-12
7.4582e-11
-5.52516e-12
7.625e-11
-4.55418e-12
7.75685e-11
-3.56636e-12
7.85317e-11
-2.57155e-12
7.91359e-11
-1.56269e-12
7.94125e-11
-5.98723e-13
7.93318e-11
3.78976e-13
7.89567e-11
1.21827e-12
7.82807e-11
2.08928e-12
7.73408e-11
2.8305e-12
7.61427e-11
3.55823e-12
7.47133e-11
4.21474e-12
7.30699e-11
4.8158e-12
7.12438e-11
5.31179e-12
6.92554e-11
5.74863e-12
6.71238e-11
6.1274e-12
6.48667e-11
6.45414e-12
6.25018e-11
6.72904e-12
6.00478e-11
6.94934e-12
5.75123e-11
7.12965e-12
5.49234e-11
7.27434e-12
5.22834e-11
7.40619e-12
4.95958e-11
7.52802e-12
4.68896e-11
7.58649e-12
4.41785e-11
7.6317e-12
4.1482e-11
7.67646e-12
3.88052e-11
7.72905e-12
3.61494e-11
7.77084e-12
3.35193e-11
7.78178e-12
3.08934e-11
7.77569e-12
2.82754e-11
7.7251e-12
2.5644e-11
7.66725e-12
2.30164e-11
7.60541e-12
2.04026e-11
7.522e-12
1.77902e-11
7.44532e-12
1.51818e-11
7.38897e-12
1.25866e-11
7.36447e-12
1.00023e-11
7.37589e-12
7.44424e-12
7.38798e-12
4.89059e-12
7.43682e-12
2.34822e-12
7.43732e-12
6.71794e-12
1.05481e-13
-1.35259e-11
2.93002e-12
3.76687e-12
4.11445e-12
5.63019e-12
4.1144e-12
4.11062e-12
3.61363e-12
2.51028e-12
3.02083e-12
1.4176e-12
2.48574e-12
7.4986e-13
2.01033e-12
3.24704e-13
1.61852e-12
5.6808e-14
1.30044e-12
-1.03835e-13
1.03185e-12
-2.10914e-13
8.24073e-13
-2.87667e-13
6.46095e-13
-3.3424e-13
4.88231e-13
-3.7962e-13
3.39185e-13
-4.08293e-13
1.95355e-13
-4.34411e-13
5.76662e-14
-4.55269e-13
-7.80902e-14
-4.72286e-13
-2.08799e-13
-4.87688e-13
-3.27083e-13
-5.06135e-13
-4.29471e-13
-5.21452e-13
-5.12595e-13
-5.46361e-13
-5.70042e-13
-5.89165e-13
-5.89764e-13
-6.52683e-13
-5.63021e-13
-7.44814e-13
-4.80199e-13
-8.72419e-13
-3.34585e-13
-1.04073e-12
-1.16996e-13
-1.25967e-12
1.84813e-13
-1.53231e-12
5.92175e-13
-1.85696e-12
1.0959e-12
-2.23994e-12
1.73852e-12
-2.72643e-12
2.52958e-12
-3.26428e-12
3.47805e-12
-3.87561e-12
4.60111e-12
-4.48037e-12
5.92003e-12
-5.28182e-12
7.45004e-12
-6.07217e-12
9.19929e-12
-6.90273e-12
1.11902e-11
-7.79058e-12
1.34247e-11
-8.64119e-12
1.59074e-11
-9.55072e-12
1.86222e-11
-1.04649e-11
2.15771e-11
-1.13115e-11
2.47708e-11
-1.21157e-11
2.8173e-11
-1.281e-11
3.17531e-11
-1.34374e-11
3.54793e-11
-1.39369e-11
3.93164e-11
-1.42916e-11
4.32215e-11
-1.44923e-11
4.71481e-11
-1.45262e-11
5.10402e-11
-1.4382e-11
5.48537e-11
-1.40634e-11
5.85358e-11
-1.3568e-11
6.20387e-11
-1.29032e-11
6.53177e-11
-1.20805e-11
6.83353e-11
-1.11154e-11
7.10536e-11
-1.00292e-11
7.34443e-11
-8.84361e-12
7.54911e-11
-7.57204e-12
7.71826e-11
-6.24545e-12
7.85061e-11
-4.88987e-12
7.94556e-11
-3.52092e-12
8.00563e-11
-2.16329e-12
8.03034e-11
-8.4527e-13
8.01959e-11
4.87203e-13
7.97758e-11
1.63891e-12
7.90565e-11
2.80872e-12
7.80466e-11
3.84176e-12
7.6777e-11
4.82821e-12
7.52829e-11
5.70852e-12
7.35945e-11
6.50381e-12
7.17016e-11
7.2044e-12
6.96481e-11
7.80232e-12
6.74419e-11
8.33458e-12
6.51163e-11
8.77769e-12
6.26881e-11
9.15323e-12
6.01772e-11
9.46118e-12
5.76026e-11
9.70237e-12
5.49852e-11
9.89206e-12
5.2331e-11
1.00595e-11
4.96366e-11
1.02181e-11
4.69337e-11
1.02894e-11
4.4217e-11
1.03474e-11
4.15084e-11
1.03853e-11
3.88212e-11
1.04176e-11
3.61461e-11
1.04456e-11
3.34793e-11
1.04481e-11
3.08386e-11
1.04171e-11
2.81996e-11
1.03645e-11
2.55774e-11
1.02882e-11
2.2973e-11
1.02108e-11
2.03706e-11
1.01254e-11
1.77735e-11
1.00402e-11
1.517e-11
9.99133e-12
1.25748e-11
9.96133e-12
1.00066e-11
9.94351e-12
7.45206e-12
9.94047e-12
4.92672e-12
9.96003e-12
2.40272e-12
9.95776e-12
9.11976e-12
-1.23732e-12
-1.22899e-11
6.16104e-13
1.91433e-12
2.01304e-12
4.23355e-12
2.51403e-12
3.60907e-12
2.51415e-12
2.50955e-12
2.28916e-12
1.64283e-12
2.00283e-12
1.03744e-12
1.71263e-12
6.16428e-13
1.43239e-12
3.37908e-13
1.1939e-12
1.3457e-13
9.81137e-13
1.42705e-15
7.97169e-13
-1.03543e-13
6.38755e-13
-1.74628e-13
4.80084e-13
-2.19081e-13
3.34369e-13
-2.60907e-13
1.92956e-13
-2.92081e-13
5.41018e-14
-3.1607e-13
-8.27742e-14
-3.35038e-13
-2.16082e-13
-3.53626e-13
-3.45118e-13
-3.76241e-13
-4.60073e-13
-4.06163e-13
-5.58154e-13
-4.48771e-13
-6.34871e-13
-5.1336e-13
-6.80983e-13
-6.07158e-13
-6.87524e-13
-7.38165e-13
-6.45875e-13
-9.13591e-13
-5.44991e-13
-1.1414e-12
-3.77755e-13
-1.42719e-12
-1.31357e-13
-1.77909e-12
2.16411e-13
-2.20458e-12
6.41833e-13
-2.6645e-12
1.21868e-12
-3.30224e-12
1.93342e-12
-3.97853e-12
2.80386e-12
-4.7462e-12
3.89659e-12
-5.57319e-12
5.14616e-12
-6.53081e-12
6.62109e-12
-7.54598e-12
8.3242e-12
-8.60452e-12
1.02775e-11
-9.74257e-12
1.25167e-11
-1.08795e-11
1.5014e-11
-1.2048e-11
1.77662e-11
-1.32167e-11
2.07913e-11
-1.43356e-11
2.4047e-11
-1.53712e-11
2.7554e-11
-1.63174e-11
3.12595e-11
-1.71424e-11
3.51261e-11
-1.78028e-11
3.91214e-11
-1.82868e-11
4.31952e-11
-1.85655e-11
4.72954e-11
-1.86255e-11
5.13692e-11
-1.84549e-11
5.53585e-11
-1.8052e-11
5.92081e-11
-1.74178e-11
6.28659e-11
-1.65615e-11
6.62838e-11
-1.54986e-11
6.94211e-11
-1.42524e-11
7.2239e-11
-1.28466e-11
7.47041e-11
-1.13095e-11
7.68032e-11
-9.67154e-12
7.85233e-11
-7.96482e-12
7.98521e-11
-6.21802e-12
8.07936e-11
-4.4623e-12
8.13584e-11
-2.72812e-12
8.15425e-11
-1.02882e-12
8.14146e-11
6.16593e-13
8.09079e-11
2.14775e-12
8.0116e-11
3.60124e-12
7.90081e-11
4.94992e-12
7.76545e-11
6.18194e-12
7.60731e-11
7.28928e-12
7.43044e-11
8.27142e-12
7.23163e-11
9.19158e-12
7.01835e-11
9.93379e-12
6.7892e-11
1.06258e-11
6.54906e-11
1.11807e-11
6.29941e-11
1.16476e-11
6.04193e-11
1.20346e-11
5.77859e-11
1.23351e-11
5.51175e-11
1.25574e-11
5.24261e-11
1.27498e-11
4.97284e-11
1.29144e-11
4.69989e-11
1.3018e-11
4.42631e-11
1.30854e-11
4.15366e-11
1.31132e-11
3.88246e-11
1.31281e-11
3.61212e-11
1.31493e-11
3.34481e-11
1.31215e-11
3.07901e-11
1.3074e-11
2.81461e-11
1.30091e-11
2.55215e-11
1.29133e-11
2.29147e-11
1.28165e-11
2.03163e-11
1.27245e-11
1.77107e-11
1.26445e-11
1.51188e-11
1.25818e-11
1.25437e-11
1.25329e-11
9.98545e-12
1.25003e-11
7.45247e-12
1.24735e-11
4.94976e-12
1.24635e-11
2.44048e-12
1.24671e-11
1.15599e-11
-1.48363e-12
-1.08068e-11
-2.87393e-13
7.19143e-13
8.27753e-13
3.119e-12
1.42133e-12
3.0155e-12
1.64743e-12
2.28368e-12
1.64849e-12
1.643e-12
1.54098e-12
1.1471e-12
1.3853e-12
7.74113e-13
1.21883e-12
5.05268e-13
1.04572e-12
3.07536e-13
8.86879e-13
1.6004e-13
7.28805e-13
5.51548e-14
5.84283e-13
-2.856e-14
4.44797e-13
-7.79528e-14
3.08244e-13
-1.23489e-13
1.69312e-13
-1.53171e-13
3.01625e-14
-1.77176e-13
-1.094e-13
-1.95276e-13
-2.47581e-13
-2.14788e-13
-3.83364e-13
-2.40021e-13
-5.1112e-13
-2.78811e-13
-6.29401e-13
-3.31611e-13
-7.32089e-13
-4.11741e-13
-8.08248e-13
-5.31347e-13
-8.54531e-13
-6.91554e-13
-8.6293e-13
-9.04789e-13
-8.24386e-13
-1.17992e-12
-7.26332e-13
-1.52541e-12
-5.54106e-13
-1.95112e-12
-2.9564e-13
-2.46226e-12
8.3092e-14
-3.04229e-12
5.58556e-13
-3.77718e-12
1.17555e-12
-4.59562e-12
1.96716e-12
-5.5381e-12
2.95702e-12
-6.56282e-12
4.13809e-12
-7.71092e-12
5.55004e-12
-8.95693e-12
7.19674e-12
-1.02508e-11
9.12372e-12
-1.16692e-11
1.13418e-11
-1.30967e-11
1.38441e-11
-1.45496e-11
1.66395e-11
-1.6012e-11
1.97204e-11
-1.74162e-11
2.30956e-11
-1.87463e-11
2.67328e-11
-1.99551e-11
3.05997e-11
-2.1009e-11
3.46488e-11
-2.18509e-11
3.88492e-11
-2.24866e-11
4.31416e-11
-2.28578e-11
4.74704e-11
-2.29546e-11
5.17751e-11
-2.27599e-11
5.59929e-11
-2.22694e-11
6.00611e-11
-2.14858e-11
6.39226e-11
-2.04227e-11
6.7522e-11
-1.9098e-11
7.08144e-11
-1.75452e-11
7.37606e-11
-1.57924e-11
7.63253e-11
-1.38745e-11
7.84927e-11
-1.18394e-11
8.02502e-11
-9.72183e-12
8.15888e-11
-7.55553e-12
8.25149e-11
-5.38736e-12
8.30277e-11
-3.24017e-12
8.31596e-11
-1.15988e-12
8.29395e-11
8.37284e-13
8.23488e-11
2.74001e-12
8.14438e-11
4.50726e-12
8.02423e-11
6.15113e-12
7.87721e-11
7.6519e-12
7.70954e-11
8.96548e-12
7.51794e-11
1.01864e-11
7.30963e-11
1.12736e-11
7.08516e-11
1.21785e-11
6.84705e-11
1.30062e-11
6.5983e-11
1.36671e-11
6.3412e-11
1.42192e-11
6.07663e-11
1.46779e-11
5.80612e-11
1.50399e-11
5.53161e-11
1.53028e-11
5.2575e-11
1.54892e-11
4.98277e-11
1.56627e-11
4.7066e-11
1.57794e-11
4.42997e-11
1.58499e-11
4.15447e-11
1.58688e-11
3.88126e-11
1.58613e-11
3.61038e-11
1.58572e-11
3.34139e-11
1.581e-11
3.07389e-11
1.57511e-11
2.80843e-11
1.56644e-11
2.54472e-11
1.55497e-11
2.28302e-11
1.5432e-11
2.02289e-11
1.53258e-11
1.76342e-11
1.52371e-11
1.5056e-11
1.51614e-11
1.24956e-11
1.50963e-11
9.95483e-12
1.50377e-11
7.4414e-12
1.49846e-11
4.94385e-12
1.49595e-11
2.44034e-12
1.49694e-11
1.40002e-11
-1.35376e-12
-9.45218e-12
-6.10475e-13
-2.32593e-14
2.16611e-13
2.29227e-12
7.53456e-13
2.4791e-12
1.04199e-12
1.99636e-12
1.15258e-12
1.53455e-12
1.15422e-12
1.14781e-12
1.09281e-12
8.37057e-13
9.99921e-13
5.98422e-13
8.84112e-13
4.22911e-13
7.71021e-13
2.73062e-13
6.50446e-13
1.76548e-13
5.26817e-13
9.62994e-14
4.07529e-13
4.20628e-14
2.74931e-13
8.91176e-15
1.39545e-13
-1.84735e-14
2.13051e-15
-4.01378e-14
-1.36806e-13
-5.60486e-14
-2.80538e-13
-7.05388e-14
-4.2601e-13
-9.45513e-14
-5.72586e-13
-1.33015e-13
-7.13124e-13
-1.92173e-13
-8.47042e-13
-2.78558e-13
-9.66926e-13
-4.11561e-13
-1.06513e-12
-5.93084e-13
-1.13461e-12
-8.35074e-13
-1.16572e-12
-1.14865e-12
-1.14702e-12
-1.54375e-12
-1.06595e-12
-2.03154e-12
-9.05552e-13
-2.62204e-12
-6.27378e-13
-3.32036e-12
-2.57234e-13
-4.14772e-12
2.7099e-13
-5.1242e-12
9.37335e-13
-6.20437e-12
1.80727e-12
-7.43235e-12
2.8911e-12
-8.79422e-12
4.20931e-12
-1.02748e-11
5.81443e-12
-1.18558e-11
7.68961e-12
-1.3544e-11
9.88339e-12
-1.52893e-11
1.24098e-11
-1.70751e-11
1.52386e-11
-1.88413e-11
1.8409e-11
-2.05873e-11
2.19121e-11
-2.22493e-11
2.57009e-11
-2.37434e-11
2.97512e-11
-2.50588e-11
3.40268e-11
-2.61262e-11
3.84822e-11
-2.69424e-11
4.30478e-11
-2.7424e-11
4.76641e-11
-2.7571e-11
5.22604e-11
-2.73562e-11
5.67651e-11
-2.6774e-11
6.11085e-11
-2.58293e-11
6.52251e-11
-2.45392e-11
6.90557e-11
-2.29282e-11
7.2546e-11
-2.10356e-11
7.5653e-11
-1.88989e-11
7.83442e-11
-1.65654e-11
8.0596e-11
-1.40917e-11
8.23959e-11
-1.15222e-11
8.37398e-11
-8.89876e-12
8.46246e-11
-6.27079e-12
8.51007e-11
-3.71483e-12
8.51497e-11
-1.20709e-12
8.48089e-11
1.1787e-12
8.41047e-11
3.44499e-12
8.30647e-11
5.54772e-12
8.17318e-11
7.48308e-12
8.01332e-11
9.2489e-12
7.82762e-11
1.0822e-11
7.62282e-11
1.22356e-11
7.4027e-11
1.34759e-11
7.16477e-11
1.45571e-11
6.91637e-11
1.54912e-11
6.65715e-11
1.62559e-11
6.39043e-11
1.68848e-11
6.11745e-11
1.74074e-11
5.83885e-11
1.78246e-11
5.55722e-11
1.812e-11
5.27564e-11
1.83044e-11
4.99399e-11
1.84794e-11
4.71312e-11
1.85895e-11
4.43279e-11
1.86529e-11
4.15373e-11
1.86574e-11
3.87752e-11
1.86232e-11
3.6058e-11
1.85763e-11
3.33501e-11
1.85174e-11
3.06653e-11
1.84342e-11
2.80028e-11
1.83268e-11
2.53595e-11
1.81941e-11
2.27369e-11
1.80533e-11
2.01344e-11
1.79292e-11
1.75497e-11
1.78218e-11
1.49793e-11
1.773e-11
1.24272e-11
1.76468e-11
9.89843e-12
1.75655e-11
7.39308e-12
1.74899e-11
4.90562e-12
1.74467e-11
2.40961e-12
1.74662e-11
1.64098e-11
-1.15115e-12
-8.29971e-12
-7.38827e-13
-4.34995e-13
-1.48131e-13
1.7016e-12
3.2848e-13
2.00297e-12
6.20987e-13
1.70532e-12
7.79558e-13
1.37795e-12
8.43444e-13
1.08544e-12
8.44087e-13
8.36844e-13
8.04916e-13
6.37075e-13
7.40818e-13
4.86348e-13
6.61023e-13
3.52791e-13
5.75052e-13
2.63029e-13
4.73609e-13
1.98181e-13
3.63871e-13
1.5163e-13
2.489e-13
1.23207e-13
1.21786e-13
1.0809e-13
-1.61424e-14
9.78749e-14
-1.60742e-13
8.91623e-14
-3.13208e-13
8.24681e-14
-4.71786e-13
6.40096e-14
-6.32667e-13
2.73045e-14
-7.99057e-13
-2.64982e-14
-9.80785e-13
-9.73409e-14
-1.14885e-12
-2.43702e-13
-1.30893e-12
-4.32976e-13
-1.45037e-12
-6.93376e-13
-1.56394e-12
-1.03461e-12
-1.63886e-12
-1.46833e-12
-1.66169e-12
-2.00851e-12
-1.61371e-12
-2.6704e-12
-1.46642e-12
-3.46847e-12
-1.23378e-12
-4.38105e-12
-8.4992e-13
-5.50814e-12
-2.96393e-13
-6.75751e-12
4.45493e-13
-8.174e-12
1.40453e-12
-9.75329e-12
2.61936e-12
-1.14893e-11
4.12574e-12
-1.33614e-11
5.9464e-12
-1.53638e-11
8.1071e-12
-1.74492e-11
1.06261e-11
-1.95938e-11
1.35258e-11
-2.17418e-11
1.67921e-11
-2.38544e-11
2.04158e-11
-2.58723e-11
2.44031e-11
-2.77294e-11
2.86855e-11
-2.9341e-11
3.32461e-11
-3.06876e-11
3.80003e-11
-3.16977e-11
4.29032e-11
-3.23274e-11
4.78735e-11
-3.25408e-11
5.28303e-11
-3.23125e-11
5.76917e-11
-3.16353e-11
6.23776e-11
-3.05154e-11
6.68112e-11
-2.89729e-11
7.09255e-11
-2.70419e-11
7.46572e-11
-2.47673e-11
7.79605e-11
-2.22025e-11
8.08021e-11
-1.94066e-11
8.31533e-11
-1.64423e-11
8.50035e-11
-1.33726e-11
8.63526e-11
-1.02481e-11
8.72187e-11
-7.1365e-12
8.75999e-11
-4.09538e-12
8.7538e-11
-1.14354e-12
8.70583e-11
1.65983e-12
8.61983e-11
4.306e-12
8.49925e-11
6.75416e-12
8.34864e-11
8.98892e-12
8.17056e-11
1.10286e-11
7.96622e-11
1.28651e-11
7.74519e-11
1.44449e-11
7.508e-11
1.58502e-11
7.25633e-11
1.70716e-11
6.99392e-11
1.81147e-11
6.72227e-11
1.89724e-11
6.44427e-11
1.96637e-11
6.16163e-11
2.0234e-11
5.87491e-11
2.06893e-11
5.58527e-11
2.10154e-11
5.29397e-11
2.12171e-11
5.00611e-11
2.13586e-11
4.71961e-11
2.14549e-11
4.43477e-11
2.15011e-11
4.1517e-11
2.14886e-11
3.8722e-11
2.14189e-11
3.59703e-11
2.13265e-11
3.32373e-11
2.12498e-11
3.05525e-11
2.11168e-11
2.7892e-11
2.09866e-11
2.5251e-11
2.08342e-11
2.26319e-11
2.06735e-11
2.00311e-11
2.05282e-11
1.74504e-11
2.04021e-11
1.48855e-11
2.02946e-11
1.23391e-11
2.01932e-11
9.8139e-12
2.00893e-11
7.31027e-12
1.99936e-11
4.82884e-12
1.99273e-11
2.35304e-12
1.9943e-11
1.87634e-11
-9.80402e-13
-7.31846e-12
-7.60188e-13
-6.55124e-13
-3.32517e-13
1.27369e-12
6.0392e-14
1.61022e-12
3.42288e-13
1.4242e-12
5.10508e-13
1.21055e-12
6.0479e-13
9.91372e-13
6.44211e-13
7.9688e-13
6.44261e-13
6.36143e-13
6.17259e-13
5.12705e-13
5.6858e-13
4.01294e-13
5.05731e-13
3.25922e-13
4.26635e-13
2.77155e-13
3.3415e-13
2.43724e-13
2.28484e-13
2.28517e-13
1.1175e-13
2.24915e-13
-2.43728e-14
2.34659e-13
-1.727e-13
2.38423e-13
-3.34727e-13
2.45233e-13
-5.10465e-13
2.39975e-13
-7.01659e-13
2.18175e-13
-9.02684e-13
1.73843e-13
-1.09866e-12
9.79082e-14
-1.33406e-12
-8.76246e-15
-1.57118e-12
-1.95853e-13
-1.79615e-12
-4.6802e-13
-2.00527e-12
-8.25118e-13
-2.18926e-12
-1.28444e-12
-2.33598e-12
-1.86251e-12
-2.4257e-12
-2.58169e-12
-2.44005e-12
-3.4549e-12
-2.33015e-12
-4.49124e-12
-2.11489e-12
-5.72321e-12
-1.72998e-12
-7.142e-12
-1.15e-12
-8.75364e-12
-3.33713e-13
-1.05692e-11
7.48372e-13
-1.25705e-11
2.13087e-12
-1.47426e-11
3.87531e-12
-1.71074e-11
5.98804e-12
-1.95621e-11
8.50629e-12
-2.21122e-11
1.14515e-11
-2.46871e-11
1.48232e-11
-2.7226e-11
1.86082e-11
-2.96567e-11
2.27989e-11
-3.19197e-11
2.73609e-11
-3.39034e-11
3.22457e-11
-3.55729e-11
3.73773e-11
-3.68297e-11
4.26927e-11
-3.76429e-11
4.80964e-11
-3.79444e-11
5.34955e-11
-3.77118e-11
5.87941e-11
-3.69336e-11
6.38985e-11
-3.5619e-11
6.87194e-11
-3.37931e-11
7.31778e-11
-3.14998e-11
7.7201e-11
-2.87911e-11
8.07378e-11
-2.57406e-11
8.37502e-11
-2.24195e-11
8.621e-11
-1.89014e-11
8.81138e-11
-1.52756e-11
8.94609e-11
-1.15952e-11
9.02652e-11
-7.94044e-12
9.05472e-11
-4.37668e-12
9.03475e-11
-9.42686e-13
8.96987e-11
2.30909e-12
8.86576e-11
5.34747e-12
8.7242e-11
8.17018e-12
8.552e-11
1.07122e-11
8.35084e-11
1.30389e-11
8.12803e-11
1.50947e-11
7.88502e-11
1.68724e-11
7.62684e-11
1.84323e-11
7.35741e-11
1.97657e-11
7.07795e-11
2.09083e-11
6.79094e-11
2.18405e-11
6.4994e-11
2.25773e-11
6.20529e-11
2.3176e-11
5.90969e-11
2.36453e-11
5.61062e-11
2.40054e-11
5.31256e-11
2.41968e-11
5.01726e-11
2.43127e-11
4.72495e-11
2.43785e-11
4.43518e-11
2.43993e-11
4.14782e-11
2.43624e-11
3.86407e-11
2.42565e-11
3.58493e-11
2.41183e-11
3.30974e-11
2.40033e-11
3.04018e-11
2.38104e-11
2.77435e-11
2.36436e-11
2.51078e-11
2.34674e-11
2.2494e-11
2.32905e-11
1.99034e-11
2.3119e-11
1.73291e-11
2.29743e-11
1.47714e-11
2.28504e-11
1.22326e-11
2.27331e-11
9.7118e-12
2.26118e-11
7.21272e-12
2.2496e-11
4.73806e-12
2.24026e-11
2.26386e-12
2.24171e-11
2.10273e-11
-8.52496e-13
-6.466e-12
-7.3589e-13
-7.72206e-13
-4.19906e-13
9.57343e-13
-1.00174e-13
1.29017e-12
1.39227e-13
1.18461e-12
3.13153e-13
1.03639e-12
4.2885e-13
8.75168e-13
4.93513e-13
7.31505e-13
5.20665e-13
6.0832e-13
5.20622e-13
5.12283e-13
4.9729e-13
4.24375e-13
4.55055e-13
3.68034e-13
3.96014e-13
3.36108e-13
3.20625e-13
3.19073e-13
2.28219e-13
3.21078e-13
1.17132e-13
3.36514e-13
-1.20606e-14
3.64728e-13
-1.6315e-13
3.90536e-13
-3.34931e-13
4.1778e-13
-5.29559e-13
4.34712e-13
-7.49092e-13
4.37052e-13
-9.90013e-13
4.13674e-13
-1.2525e-12
3.59464e-13
-1.52327e-12
2.61668e-13
-1.81642e-12
9.74734e-14
-2.16093e-12
-1.23276e-13
-2.48067e-12
-5.0554e-13
-2.79028e-12
-9.75483e-13
-3.073e-12
-1.5806e-12
-3.31595e-12
-2.33929e-12
-3.49603e-12
-3.27497e-12
-3.58087e-12
-4.4063e-12
-3.55037e-12
-5.75345e-12
-3.35924e-12
-7.33247e-12
-2.97103e-12
-9.14069e-12
-2.34205e-12
-1.1197e-11
-1.42151e-12
-1.34901e-11
-1.53255e-13
-1.60101e-11
1.44908e-12
-1.87095e-11
3.47571e-12
-2.15888e-11
5.9725e-12
-2.46087e-11
8.95865e-12
-2.76724e-11
1.24363e-11
-3.07031e-11
1.64043e-11
-3.3625e-11
2.08345e-11
-3.63503e-11
2.57246e-11
-3.87939e-11
3.10003e-11
-4.08484e-11
3.65846e-11
-4.24134e-11
4.23958e-11
-4.34538e-11
4.8325e-11
-4.38738e-11
5.42625e-11
-4.36495e-11
6.00953e-11
-4.27661e-11
6.57088e-11
-4.12315e-11
7.09964e-11
-3.90798e-11
7.5862e-11
-3.63648e-11
8.02311e-11
-3.31599e-11
8.40377e-11
-2.95478e-11
8.72421e-11
-2.5625e-11
8.98191e-11
-2.14792e-11
9.17735e-11
-1.72299e-11
9.3097e-11
-1.29182e-11
9.38178e-11
-8.66043e-12
9.39726e-11
-4.53031e-12
9.35895e-11
-5.57762e-13
9.27473e-11
3.15213e-12
9.14699e-11
6.62476e-12
8.98212e-11
9.81722e-12
8.78342e-11
1.26999e-11
8.55846e-11
1.52866e-11
8.30978e-11
1.7582e-11
8.04281e-11
1.95428e-11
7.76039e-11
2.12566e-11
7.4696e-11
2.26718e-11
7.16975e-11
2.39071e-11
6.86451e-11
2.48932e-11
6.55626e-11
2.56604e-11
6.24796e-11
2.62566e-11
5.93958e-11
2.67286e-11
5.63357e-11
2.70662e-11
5.32841e-11
2.72471e-11
5.02507e-11
2.73471e-11
4.7264e-11
2.73661e-11
4.43187e-11
2.73437e-11
4.14102e-11
2.72719e-11
3.85315e-11
2.71351e-11
3.57029e-11
2.69458e-11
3.29315e-11
2.67751e-11
3.0222e-11
2.65199e-11
2.75573e-11
2.63077e-11
2.49244e-11
2.60983e-11
2.23127e-11
2.58988e-11
1.97333e-11
2.57003e-11
1.71735e-11
2.55345e-11
1.46315e-11
2.53908e-11
1.21095e-11
2.52566e-11
9.60159e-12
2.51215e-11
7.1108e-12
2.49881e-11
4.6399e-12
2.48732e-11
2.16666e-12
2.48894e-11
2.31938e-11
-7.61151e-13
-5.70545e-12
-7.08134e-13
-8.25884e-13
-4.75823e-13
7.24653e-13
-2.05779e-13
1.01959e-12
6.30435e-15
9.71969e-13
1.65656e-13
8.76693e-13
2.79748e-13
7.60906e-13
3.60237e-13
6.50873e-13
4.09775e-13
5.58551e-13
4.33511e-13
4.88269e-13
4.33996e-13
4.23735e-13
4.13848e-13
3.88244e-13
3.76062e-13
3.74077e-13
3.18025e-13
3.77266e-13
2.40479e-13
3.98771e-13
1.41478e-13
4.35857e-13
2.33393e-14
4.83533e-13
-1.32313e-13
5.46941e-13
-3.04471e-13
5.90218e-13
-5.10721e-13
6.40371e-13
-7.51937e-13
6.77014e-13
-1.03616e-12
6.96698e-13
-1.36148e-12
6.84263e-13
-1.71642e-12
6.16709e-13
-2.10284e-12
4.84078e-13
-2.49378e-12
2.67484e-13
-2.95559e-12
-4.4166e-14
-3.40266e-12
-5.28662e-13
-3.84755e-12
-1.1356e-12
-4.27018e-12
-1.91643e-12
-4.646e-12
-2.899e-12
-4.94502e-12
-4.10709e-12
-5.13346e-12
-5.56435e-12
-5.17938e-12
-7.28516e-12
-5.02619e-12
-9.29215e-12
-4.63131e-12
-1.15907e-11
-3.93145e-12
-1.41897e-11
-2.87696e-12
-1.70645e-11
-1.39733e-12
-2.01887e-11
5.57233e-13
-2.35427e-11
2.96023e-12
-2.70111e-11
5.97457e-12
-3.06863e-11
9.55586e-12
-3.42844e-11
1.37218e-11
-3.77909e-11
1.84329e-11
-4.10613e-11
2.37105e-11
-4.40717e-11
2.94435e-11
-4.65817e-11
3.55762e-11
-4.85461e-11
4.19819e-11
-4.98591e-11
4.85508e-11
-5.04418e-11
5.51448e-11
-5.02427e-11
6.1622e-11
-4.92428e-11
6.78471e-11
-4.74564e-11
7.36929e-11
-4.49255e-11
7.90467e-11
-4.17184e-11
8.38176e-11
-3.79301e-11
8.79341e-11
-3.36637e-11
9.13508e-11
-2.9042e-11
9.40574e-11
-2.41866e-11
9.60368e-11
-1.92096e-11
9.73246e-11
-1.42055e-11
9.79212e-11
-9.25688e-12
9.78989e-11
-4.50789e-12
9.73024e-11
4.00795e-14
9.62111e-11
4.24478e-12
9.46591e-11
8.17791e-12
9.27133e-11
1.17612e-11
9.04421e-11
1.49701e-11
8.78816e-11
1.78487e-11
8.51357e-11
2.03278e-11
8.21683e-11
2.25102e-11
7.90928e-11
2.43322e-11
7.59156e-11
2.58489e-11
7.2701e-11
2.71234e-11
6.94357e-11
2.81569e-11
6.61609e-11
2.89374e-11
6.29138e-11
2.95027e-11
5.96923e-11
2.99494e-11
5.65198e-11
3.02404e-11
5.33591e-11
3.04101e-11
5.02528e-11
3.04536e-11
4.72051e-11
3.04131e-11
4.42167e-11
3.03307e-11
4.1282e-11
3.02087e-11
3.83817e-11
3.00345e-11
3.55272e-11
2.97985e-11
3.27442e-11
2.95578e-11
3.00148e-11
2.925e-11
2.73353e-11
2.89845e-11
2.46977e-11
2.87358e-11
2.20986e-11
2.84984e-11
1.95254e-11
2.82737e-11
1.69829e-11
2.80782e-11
1.44646e-11
2.79109e-11
1.19665e-11
2.77568e-11
9.47973e-12
2.76083e-11
7.0047e-12
2.74633e-11
4.54052e-12
2.73378e-11
2.07941e-12
2.735e-11
2.52743e-11
-7.00922e-13
-5.00503e-12
-6.70079e-13
-8.57075e-13
-4.92502e-13
5.46869e-13
-2.85162e-13
8.12021e-13
-9.96853e-14
7.86486e-13
6.0903e-14
7.16583e-13
1.83073e-13
6.39427e-13
2.70435e-13
5.63915e-13
3.34231e-13
4.94716e-13
3.77117e-13
4.45203e-13
3.98407e-13
4.02479e-13
3.99081e-13
3.87803e-13
3.79849e-13
3.93405e-13
3.39054e-13
4.17798e-13
2.76195e-13
4.61233e-13
1.88925e-13
5.23037e-13
7.32949e-14
5.99464e-13
-7.35052e-14
6.93928e-13
-2.6187e-13
7.78052e-13
-4.85767e-13
8.6303e-13
-7.5723e-13
9.47253e-13
-1.0752e-12
1.01418e-12
-1.44183e-12
1.05112e-12
-1.86285e-12
1.03804e-12
-2.33681e-12
9.57902e-13
-2.86242e-12
7.92754e-13
-3.41496e-12
5.08464e-13
-4.02393e-12
8.10491e-14
-4.64863e-12
-5.1008e-13
-5.27173e-12
-1.29301e-12
-5.87238e-12
-2.2983e-12
-6.41899e-12
-3.55988e-12
-6.8765e-12
-5.10537e-12
-7.19388e-12
-6.96602e-12
-7.32256e-12
-9.16224e-12
-7.21009e-12
-1.17028e-11
-6.78616e-12
-1.46136e-11
-5.98487e-12
-1.78652e-11
-4.72179e-12
-2.14507e-11
-2.94101e-12
-2.5323e-11
-5.29465e-13
-2.9423e-11
2.41797e-12
-3.36342e-11
6.07949e-12
-3.79458e-11
1.04394e-11
-4.21502e-11
1.55076e-11
-4.6129e-11
2.12076e-11
-4.97718e-11
2.75071e-11
-5.28817e-11
3.42789e-11
-5.53182e-11
4.14149e-11
-5.69949e-11
4.87589e-11
-5.77852e-11
5.61441e-11
-5.76271e-11
6.3402e-11
-5.64996e-11
7.03649e-11
-5.44185e-11
7.68797e-11
-5.14398e-11
8.28083e-11
-4.76475e-11
8.8055e-11
-4.31775e-11
9.25153e-11
-3.81239e-11
9.61773e-11
-3.27033e-11
9.90093e-11
-2.7018e-11
1.01003e-10
-2.12035e-11
1.02238e-10
-1.54408e-11
1.02618e-10
-9.63605e-12
1.02432e-10
-4.32205e-12
1.01502e-10
9.70863e-13
1.00112e-10
5.63495e-12
9.82319e-11
1.00583e-11
9.59117e-11
1.40838e-11
9.32762e-11
1.76033e-11
9.04128e-11
2.07135e-11
8.73108e-11
2.34297e-11
8.40489e-11
2.57755e-11
8.0668e-11
2.77137e-11
7.72171e-11
2.92982e-11
7.37436e-11
3.05982e-11
7.02629e-11
3.16386e-11
6.67895e-11
3.2411e-11
6.33411e-11
3.29497e-11
5.99523e-11
3.334e-11
5.66403e-11
3.35519e-11
5.33864e-11
3.3664e-11
5.01928e-11
3.36496e-11
4.7073e-11
3.35348e-11
4.40349e-11
3.33674e-11
4.1073e-11
3.31714e-11
3.81622e-11
3.2947e-11
3.53025e-11
3.26602e-11
3.25174e-11
3.23389e-11
2.97722e-11
3.19946e-11
2.70853e-11
3.16718e-11
2.44484e-11
3.13712e-11
2.18516e-11
3.10954e-11
1.929e-11
3.08362e-11
1.67662e-11
3.06038e-11
1.42719e-11