/*--------------------------------*- C++ -*----------------------------------*\
| =========                 |                                                 |
| \\      /  F ield         | OpenFOAM: The Open Source CFD Toolbox           |
|  \\    /   O peration     | Version:  2312                                  |
|   \\  /    A nd           | Website:  www.openfoam.com                      |
|    \\/     M anipulation  |                                                 |
\*---------------------------------------------------------------------------*/
FoamFile
{
    version     2.0;
    format      ascii;
    arch        "LSB;label=32;scalar=64";
    class       volScalarField;
    location    "0.1";
    object      p;
}
// * * * * * * * * * * * * * * * * * * * * * * * * * * * * * * * * * * * * * //

dimensions      [1 -1 -2 0 0 0 0];

internalField   nonuniform List<scalar> 
10000
(
0
-4.47745e-05
-2.53776e-05
-1.13328e-05
-5.51763e-06
3.47216e-06
1.50281e-05
3.10757e-05
5.3111e-05
8.32638e-05
0.000123799
0.000177244
0.000246287
0.000333869
0.000443014
0.000577072
0.000739374
0.000933497
0.00116323
0.00143251
0.00174554
0.00210645
0.0025194
0.00298864
0.0035185
0.0041133
0.00477735
0.00551493
0.00632986
0.00722596
0.00820677
0.00927548
0.010435
0.0116876
0.0130354
0.0144797
0.0160215
0.0176615
0.0193995
0.0212348
0.0231659
0.0251909
0.027307
0.029511
0.0317991
0.0341665
0.0366081
0.0391183
0.0416909
0.0443191
0.0469957
0.0497134
0.0524642
0.0552401
0.0580329
0.0608345
0.0636367
0.0664315
0.069211
0.0719676
0.0746939
0.0773832
0.080029
0.0826254
0.0851671
0.0876493
0.0900677
0.0924182
0.0946977
0.0969034
0.0990332
0.101085
0.103058
0.104952
0.106764
0.108497
0.110148
0.11172
0.113212
0.114625
0.11596
0.117218
0.1184
0.119507
0.120541
0.121503
0.122394
0.123216
0.12397
0.124657
0.125279
0.125835
0.126328
0.126757
0.127124
0.127429
0.127673
0.127856
0.12798
0.128043
-4.47467e-05
-3.0063e-05
-2.19005e-05
-1.20064e-05
-5.85339e-06
2.16553e-06
1.15977e-05
2.5677e-05
4.52587e-05
7.29865e-05
0.000110997
0.000161751
0.000227903
0.000312434
0.000418449
0.000549077
0.000707727
0.000898044
0.0011239
0.00138923
0.00169809
0.00205462
0.00246307
0.00292778
0.0034532
0.00404369
0.00470342
0.00543696
0.00624793
0.00714033
0.00811773
0.00918346
0.0103404
0.011591
0.0129372
0.0143804
0.0159217
0.0175617
0.0193003
0.0211367
0.0230696
0.0250969
0.0272162
0.0294239
0.0317162
0.0340886
0.0365357
0.0390519
0.0416311
0.0442664
0.0469506
0.0496761
0.052435
0.0552192
0.0580206
0.0608307
0.0636413
0.0664442
0.0692317
0.0719959
0.0747295
0.0774256
0.0800777
0.0826799
0.085227
0.0877139
0.0901364
0.0924904
0.0947729
0.0969811
0.0991129
0.101166
0.103141
0.105035
0.106848
0.10858
0.110231
0.111802
0.113294
0.114706
0.116039
0.117296
0.118477
0.119583
0.120616
0.121576
0.122466
0.123287
0.12404
0.124726
0.125346
0.125902
0.126393
0.126822
0.127188
0.127493
0.127737
0.12792
0.128043
0.128105
-2.5298e-05
-2.18453e-05
-2.1838e-05
-1.53727e-05
-1.21494e-05
-7.55611e-06
-3.46738e-07
1.06685e-05
2.70522e-05
5.07478e-05
8.41601e-05
0.000129806
0.000190355
0.000268806
0.000368304
0.000492062
0.000643469
0.0008262
0.00104412
0.00130125
0.00160167
0.00194963
0.00234946
0.00280557
0.00332241
0.00390445
0.00455609
0.0052816
0.00608493
0.00697042
0.00794146
0.0090014
0.0101533
0.0113996
0.0127425
0.0141833
0.0157234
0.0173632
0.0191029
0.0209417
0.0228782
0.0249105
0.027036
0.0292513
0.0315524
0.0339348
0.0363932
0.0389219
0.0415144
0.0441641
0.0468633
0.0496046
0.0523798
0.0551807
0.0579988
0.0608257
0.0636528
0.066472
0.069275
0.0720543
0.0748023
0.0775118
0.0801765
0.0827901
0.0853476
0.0878435
0.0902737
0.0926345
0.0949227
0.0971356
0.0992711
0.101328
0.103304
0.105199
0.107013
0.108745
0.110395
0.111965
0.113454
0.114864
0.116196
0.11745
0.118629
0.119732
0.120762
0.121721
0.122608
0.123427
0.124177
0.124861
0.125479
0.126032
0.126522
0.126949
0.127314
0.127618
0.127861
0.128043
0.128166
0.128228
-1.1172e-05
-1.18625e-05
-1.5284e-05
-1.27777e-05
-1.40005e-05
-1.42459e-05
-1.28084e-05
-7.68438e-06
2.51456e-06
1.94887e-05
4.56243e-05
8.33407e-05
0.000135365
0.000204661
0.000294371
0.000407745
0.000548204
0.000719423
0.000925289
0.00116994
0.00145763
0.00179267
0.00217943
0.00262243
0.00312624
0.00369548
0.0043347
0.00504827
0.00584034
0.00671522
0.00767649
0.00872767
0.00987192
0.0111119
0.0124498
0.0138872
0.0154255
0.0170652
0.0188066
0.020649
0.0225911
0.024631
0.0267659
0.0289927
0.0313071
0.0337048
0.0361804
0.0387279
0.0413407
0.044012
0.0467341
0.0494992
0.0522991
0.055125
0.0579683
0.0608203
0.0636723
0.0665159
0.0693425
0.0721442
0.0749134
0.077643
0.0803261
0.0829569
0.0855292
0.0880385
0.0904802
0.092851
0.0951476
0.0973673
0.0995082
0.101569
0.103548
0.105445
0.107259
0.10899
0.11064
0.112207
0.113694
0.115101
0.11643
0.11768
0.118855
0.119954
0.120981
0.121936
0.122819
0.123634
0.124381
0.125062
0.125676
0.126227
0.126714
0.127139
0.127502
0.127804
0.128045
0.128227
0.128349
0.128411
-5.24119e-06
-5.59798e-06
-1.19499e-05
-1.38915e-05
-1.97399e-05
-2.52834e-05
-3.00015e-05
-3.20642e-05
-2.98955e-05
-2.14682e-05
-4.77982e-06
2.24763e-05
6.31542e-05
0.000120202
0.000196838
0.000296282
0.00042201
0.000577783
0.000767547
0.000995567
0.00126622
0.00158385
0.001953
0.00237833
0.0028646
0.00341662
0.00403909
0.00473652
0.00551329
0.0063737
0.00732172
0.00836107
0.00949501
0.0107263
0.0120574
0.0134902
0.0150259
0.0166656
0.0184093
0.0202565
0.022206
0.024256
0.0264037
0.0286459
0.0309785
0.0333968
0.0358954
0.0384682
0.0411085
0.043809
0.0465619
0.0493591
0.052192
0.0550516
0.0579288
0.0608146
0.0637
0.0665762
0.0694342
0.0722659
0.0750634
0.0778194
0.0805269
0.0831798
0.0857723
0.0882992
0.0907565
0.0931405
0.0954481
0.0976769
0.0998248
0.10189
0.103873
0.105772
0.107586
0.109317
0.110965
0.11253
0.114013
0.115416
0.11674
0.117986
0.119155
0.12025
0.121271
0.122221
0.1231
0.12391
0.124652
0.125328
0.125939
0.126485
0.126968
0.12739
0.12775
0.12805
0.128289
0.12847
0.128591
0.128652
3.88762e-06
2.57214e-06
-7.22679e-06
-1.40038e-05
-2.51484e-05
-3.70877e-05
-4.93027e-05
-6.00227e-05
-6.76295e-05
-7.02254e-05
-6.57666e-05
-5.16358e-05
-2.52142e-05
1.65187e-05
7.67119e-05
0.000158545
0.000265657
0.000402041
0.000571544
0.00077864
0.00102778
0.00132345
0.00167036
0.00207337
0.00253746
0.00306763
0.00366875
0.00434558
0.00510273
0.00594471
0.00687582
0.00789998
0.00902067
0.0102408
0.0115631
0.0129898
0.0145223
0.0161616
0.0179081
0.0197614
0.0217202
0.0237829
0.0259467
0.0282085
0.030564
0.0330084
0.0355361
0.038141
0.0408159
0.0435534
0.0463454
0.0491832
0.0520579
0.0549601
0.0578804
0.0608091
0.0637368
0.0666541
0.0695518
0.0724213
0.0752544
0.0780435
0.0807816
0.0834622
0.0860795
0.0886287
0.0911053
0.0935057
0.0958269
0.0980665
0.100223
0.102294
0.104281
0.106181
0.107997
0.109726
0.111372
0.112933
0.114412
0.11581
0.117128
0.118368
0.119531
0.120619
0.121633
0.122576
0.123449
0.124253
0.124989
0.125659
0.126264
0.126806
0.127285
0.127702
0.128059
0.128356
0.128593
0.128772
0.128892
0.128952
1.55979e-05
1.21846e-05
1.36854e-07
-1.24081e-05
-2.97084e-05
-4.91445e-05
-7.01801e-05
-9.11137e-05
-0.000110362
-0.00012609
-0.000136129
-0.000137969
-0.000128747
-0.000105521
-6.51534e-05
-4.725e-06
7.97966e-05
0.00019304
0.000337965
0.00051968
0.000742667
0.00101166
0.00133159
0.00170745
0.00214452
0.002648
0.00322299
0.00387451
0.00460753
0.00542686
0.00633708
0.00734237
0.00844654
0.00965277
0.0109642
0.0123831
0.0139114
0.0155502
0.0172999
0.0191603
0.0211304
0.0232084
0.0253918
0.0276771
0.0300603
0.0325364
0.0350997
0.0377435
0.0404607
0.0432433
0.0460829
0.0489703
0.0518961
0.0548504
0.0578232
0.0608043
0.0637835
0.0667509
0.0696971
0.0726127
0.0754891
0.0783184
0.0810933
0.0838072
0.0864546
0.0890304
0.0915299
0.0939497
0.0962868
0.0985389
0.100705
0.102783
0.104774
0.106676
0.108492
0.11022
0.111862
0.113419
0.114892
0.116283
0.117594
0.118826
0.119981
0.121061
0.122068
0.123002
0.123867
0.124663
0.125392
0.126055
0.126654
0.12719
0.127663
0.128075
0.128428
0.128721
0.128955
0.129132
0.12925
0.12931
3.1791e-05
2.63354e-05
1.13055e-05
-7.11815e-06
-3.15941e-05
-5.96845e-05
-9.0933e-05
-0.00012377
-0.000156639
-0.000187664
-0.000214653
-0.00023507
-0.000246158
-0.000244974
-0.00022842
-0.000192624
-0.000134204
-4.85965e-05
6.75632e-05
0.000219373
0.000411391
0.000648771
0.000936869
0.00128058
0.0016856
0.00215723
0.00270095
0.00332217
0.00402624
0.00481833
0.00570331
0.00668572
0.00776977
0.00895915
0.0102573
0.0116668
0.0131897
0.0148274
0.0165806
0.0184492
0.0204324
0.0225284
0.0247346
0.0270478
0.0294637
0.0319772
0.0345824
0.0372725
0.0400398
0.042876
0.0457723
0.0487189
0.0517057
0.0547222
0.0577576
0.0608011
0.0638417
0.066869
0.0698726
0.0728429
0.0757707
0.0786477
0.0814663
0.0842197
0.0869022
0.0895087
0.0920346
0.0944764
0.0968316
0.0990979
0.101274
0.10336
0.105355
0.107259
0.109073
0.110799
0.112436
0.113987
0.115454
0.116837
0.118139
0.119362
0.120507
0.121577
0.122574
0.123498
0.124354
0.12514
0.12586
0.126515
0.127106
0.127635
0.128102
0.128508
0.128856
0.129145
0.129376
0.12955
0.129666
0.129726
5.402e-05
4.61429e-05
2.78842e-05
3.26467e-06
-2.92238e-05
-6.709e-05
-0.000109981
-0.000156438
-0.00020487
-0.000253369
-0.000299748
-0.000341506
-0.000375912
-0.000399983
-0.000410426
-0.000403508
-0.000375406
-0.000321539
-0.000238589
-0.000121261
3.53857e-05
0.000236245
0.000486576
0.000792648
0.00116029
0.00159463
0.00210159
0.00268714
0.00335705
0.00411686
0.00497189
0.00592716
0.00698734
0.00815664
0.00943874
0.0108367
0.0123528
0.0139889
0.0157457
0.0176235
0.0196214
0.0217378
0.0239703
0.0263156
0.0287693
0.0313262
0.0339801
0.0367239
0.0395497
0.0424487
0.0454113
0.0484272
0.0514855
0.0545749
0.0576838
0.0608005
0.0639133
0.0670106
0.0700815
0.0731156
0.0761032
0.0790355
0.0819047
0.0847036
0.0874263
0.0900677
0.0926233
0.0950899
0.0974651
0.099747
0.101935
0.104028
0.106027
0.107932
0.109745
0.111466
0.113097
0.114641
0.116098
0.117471
0.118763
0.119974
0.121108
0.122166
0.123151
0.124064
0.124908
0.125684
0.126394
0.127039
0.127621
0.128141
0.128601
0.129001
0.129342
0.129626
0.129854
0.130024
0.130139
0.130197
8.439e-05
7.40943e-05
5.18001e-05
2.04618e-05
-2.06066e-05
-6.94676e-05
-0.000125489
-0.000187246
-0.000253152
-0.000321317
-0.000389576
-0.000455467
-0.00051623
-0.000568801
-0.000609811
-0.000635512
-0.000641968
-0.000624206
-0.000579156
-0.000501278
-0.00038545
-0.000226328
-1.82521e-05
0.000244684
0.000568102
0.000959325
0.00142369
0.00196777
0.00259783
0.00331994
0.00413997
0.00506349
0.00609566
0.00724115
0.00850411
0.00988808
0.0113958
0.0130293
0.0147897
0.0166774
0.0186916
0.020831
0.0230932
0.0254749
0.0279716
0.0305779
0.0332876
0.0360931
0.0389863
0.0419576
0.0449969
0.0480929
0.0512341
0.0544081
0.0576023
0.0608038
0.0640001
0.0671785
0.0703271
0.0734347
0.076491
0.0794867
0.0824133
0.0852636
0.0880317
0.0907123
0.093301
0.0957948
0.0981917
0.10049
0.10269
0.10479
0.106793
0.108698
0.110507
0.112223
0.113846
0.11538
0.116826
0.118187
0.119466
0.120664
0.121785
0.122829
0.1238
0.1247
0.125531
0.126294
0.126992
0.127626
0.128197
0.128708
0.129159
0.129551
0.129887
0.130165
0.130388
0.130555
0.130667
0.130724
0.000125158
0.000112333
8.54337e-05
4.68091e-05
-3.72962e-06
-6.47451e-05
-0.000135292
-0.000214004
-0.000299302
-0.000389346
-0.000482005
-0.000574805
-0.000664942
-0.000749288
-0.000824418
-0.000886543
-0.000931593
-0.000955074
-0.000952612
-0.000919307
-0.000849715
-0.000738138
-0.000578655
-0.000365062
-9.08525e-05
0.000250326
0.00066589
0.00116222
0.00174635
0.00242494
0.00320448
0.0040911
0.00509052
0.00620805
0.00744843
0.00881572
0.0103131
0.0119429
0.0137064
0.0156044
0.0176365
0.0198013
0.0220965
0.0245189
0.0270638
0.029726
0.0324988
0.0353746
0.0383444
0.0413983
0.0445253
0.0477134
0.0509498
0.0542211
0.0575133
0.0608124
0.0641045
0.0673758
0.0706134
0.073805
0.0769395
0.0800069
0.0829982
0.085906
0.0887247
0.0914484
0.0940733
0.0965965
0.0990163
0.101332
0.103543
0.105651
0.107656
0.10956
0.111364
0.113072
0.114686
0.116207
0.11764
0.118986
0.12025
0.121432
0.122536
0.123565
0.12452
0.125405
0.12622
0.126969
0.127653
0.128274
0.128834
0.129334
0.129775
0.130159
0.130487
0.13076
0.130977
0.131141
0.13125
0.131306
0.00017885
0.000163335
0.000131331
8.47861e-05
2.38109e-05
-5.04152e-05
-0.000136903
-0.000234184
-0.000340821
-0.000455
-0.00057457
-0.000697024
-0.000819532
-0.000938968
-0.0010519
-0.00115452
-0.00124264
-0.0013117
-0.00135707
-0.00137374
-0.00135613
-0.00129824
-0.00119373
-0.00103595
-0.00081803
-0.000532923
-0.000173178
0.000268744
0.000800328
0.00142899
0.00216188
0.00300578
0.00396719
0.00505215
0.00626606
0.00761349
0.00909807
0.0107225
0.0124887
0.0143974
0.0164486
0.0186409
0.0209725
0.0234398
0.0260385
0.0287631
0.0316068
0.0345615
0.037618
0.0407656
0.0439924
0.0472854
0.0506305
0.0540129
0.0574172
0.0608279
0.0642294
0.0676067
0.0709454
0.0742323
0.077455
0.080603
0.0836668
0.0866393
0.0895126
0.0922832
0.0949468
0.0975013
0.0999451
0.102278
0.1045
0.106614
0.10862
0.11052
0.112318
0.114015
0.115616
0.117123
0.11854
0.119869
0.121114
0.122278
0.123364
0.124374
0.125311
0.126178
0.126976
0.127709
0.128378
0.128984
0.129531
0.130019
0.130449
0.130824
0.131144
0.131409
0.131621
0.13178
0.131887
0.131941
0.000248149
0.000229747
0.000192145
0.000137075
6.47524e-05
-2.37457e-05
-0.000127445
-0.000245027
-0.000374982
-0.000515524
-0.000664473
-0.000819302
-0.000977217
-0.00113513
-0.00128964
-0.00143686
-0.00157249
-0.00169197
-0.00179054
-0.00186284
-0.0019032
-0.00190525
-0.00186227
-0.00176721
-0.00161274
-0.00139121
-0.00109454
-0.000714447
-0.000242709
0.000328846
0.00100813
0.00180285
0.00272039
0.00376758
0.00495049
0.00627431
0.00774322
0.00936047
0.0111283
0.0130478
0.0151191
0.0173412
0.0197122
0.022229
0.024887
0.0276806
0.0306032
0.0336463
0.0368001
0.0400533
0.043393
0.0468049
0.0502736
0.0537825
0.0573145
0.0608523
0.0643785
0.0678761
0.0713294
0.0747235
0.0780453
0.0812832
0.0844273
0.0874697
0.0904039
0.0932251
0.0959299
0.0985169
0.100985
0.103335
0.105567
0.107684
0.109688
0.111583
0.113371
0.115055
0.116641
0.11813
0.119527
0.120836
0.12206
0.123202
0.124266
0.125255
0.126172
0.127018
0.127798
0.128512
0.129163
0.129754
0.130286
0.130761
0.131179
0.131543
0.131854
0.132112
0.132318
0.132472
0.132576
0.132629
0.000335996
0.000314543
0.000270858
0.000206627
0.000122052
1.82269e-05
-0.000103988
-0.000243577
-0.000398799
-0.000567853
-0.000748593
-0.000938517
-0.00113491
-0.00133476
-0.00153465
-0.00173065
-0.0019184
-0.00209328
-0.00225034
-0.00238432
-0.00248886
-0.00255745
-0.00258296
-0.00255804
-0.00247478
-0.00232482
-0.00209932
-0.00178925
-0.00138553
-0.000879143
-0.000261159
0.000477151
0.00134419
0.0023476
0.00349428
0.00479016
0.00624014
0.00784797
0.00961622
0.0115463
0.0136386
0.0158924
0.0183059
0.0208763
0.0235992
0.0264689
0.0294786
0.0326198
0.0358824
0.039254
0.0427209
0.0462673
0.049876
0.0535286
0.0572059
0.0608882
0.0645558
0.0681897
0.0717722
0.0752871
0.0787196
0.0820574
0.0852901
0.0884093
0.0914085
0.0942835
0.0970315
0.0996515
0.102143
0.104508
0.106749
0.108867
0.110867
0.112752
0.114527
0.116195
0.11776
0.119228
0.120603
0.121888
0.123087
0.124205
0.125244
0.126209
0.127102
0.127926
0.128683
0.129377
0.130009
0.130583
0.131098
0.131558
0.131964
0.132317
0.132617
0.132867
0.133066
0.133215
0.133315
0.133367
0.000445412
0.000420826
0.000370621
0.000296598
0.000198942
7.86573e-05
-6.34407e-05
-0.000226701
-0.000408976
-0.000608622
-0.00082351
-0.00105126
-0.00128923
-0.00153446
-0.00178352
-0.00203247
-0.00227701
-0.0025125
-0.00273387
-0.00293532
-0.00311059
-0.00325277
-0.00335441
-0.00340756
-0.00340383
-0.00333405
-0.00318862
-0.00295765
-0.0026311
-0.00219882
-0.00165073
-0.000977036
-0.000168052
0.000784675
0.00188915
0.0031522
0.0045794
0.00617502
0.00794203
0.00988224
0.0119963
0.0142837
0.0167428
0.0193708
0.0221638
0.0251167
0.0282221
0.0314718
0.0348549
0.0383588
0.0419685
0.0456666
0.049434
0.0532498
0.0570921
0.0609384
0.0647663
0.0685544
0.0722824
0.0759324
0.0794881
0.0829363
0.0862659
0.089468
0.0925368
0.0954685
0.098261
0.100914
0.103428
0.105807
0.108052
0.110169
0.11216
0.114032
0.115789
0.117436
0.118978
0.12042
0.121768
0.123025
0.124196
0.125285
0.126297
0.127234
0.128101
0.128899
0.129633
0.130304
0.130915
0.131469
0.131967
0.13241
0.132802
0.133142
0.133432
0.133672
0.133864
0.134007
0.134104
0.134153
0.000579741
0.000551727
0.000494652
0.000410239
0.000298655
0.000160779
-2.64061e-06
-0.000190742
-0.00040182
-0.00063408
-0.000885455
-0.0011537
-0.00143628
-0.00173029
-0.00203231
-0.00233849
-0.00264461
-0.00294598
-0.00323736
-0.00351281
-0.00376568
-0.00398882
-0.00417461
-0.00431447
-0.00439919
-0.00441903
-0.00436348
-0.00422167
-0.00398238
-0.00363418
-0.00316567
-0.00256566
-0.00182371
-0.000929595
0.000125897
0.00135041
0.00275033
0.00433048
0.00609435
0.00804409
0.0101805
0.0125032
0.0150107
0.0177003
0.0205686
0.023611
0.0268208
0.0301894
0.033706
0.0373571
0.0411268
0.0449959
0.0489429
0.0529439
0.0569737
0.0610064
0.0650161
0.0689783
0.0728701
0.076671
0.0803634
0.0839327
0.0873676
0.0906588
0.0938013
0.0967918
0.0996294
0.102314
0.104849
0.107238
0.109485
0.111595
0.113573
0.115426
0.117161
0.118781
0.120295
0.121707
0.123022
0.124247
0.125386
0.126443
0.127423
0.12833
0.129167
0.129937
0.130644
0.13129
0.131878
0.13241
0.132889
0.133315
0.13369
0.134017
0.134295
0.134526
0.134709
0.134847
0.134939
0.134987
0.000742316
0.00071065
0.000646329
0.000550962
0.000424639
0.000268154
8.22024e-05
-0.000132036
-0.000373446
-0.000640229
-0.000930404
-0.00124167
-0.00157177
-0.0019179
-0.00227671
-0.00264448
-0.00301701
-0.0033896
-0.00375687
-0.0041128
-0.0044506
-0.00476274
-0.00504102
-0.00527668
-0.00545973
-0.00557952
-0.00562469
-0.00558314
-0.00544237
-0.00518957
-0.00481186
-0.00429651
-0.00363127
-0.00280449
-0.00180591
-0.000626503
0.000740975
0.00230213
0.00406085
0.00601936
0.00817851
0.0105379
0.0130961
0.015851
0.0187994
0.0219373
0.0252594
0.0287583
0.0324214
0.036236
0.0401847
0.0442465
0.0483968
0.0526084
0.0568515
0.0610962
0.0653124
0.0694716
0.0735475
0.0775171
0.0813607
0.0850626
0.0886111
0.0919977
0.0952175
0.0982679
0.10115
0.103864
0.106416
0.108811
0.111053
0.113151
0.115111
0.11694
0.118645
0.120234
0.121713
0.123089
0.124368
0.125556
0.126657
0.127678
0.128622
0.129495
0.130299
0.131038
0.131716
0.132335
0.132897
0.133406
0.133863
0.13427
0.134629
0.13494
0.135206
0.135425
0.135601
0.135732
0.13582
0.135865
0.000936714
0.000901236
0.000829323
0.000722434
0.000580645
0.000404696
0.000195393
-4.64697e-05
-0.000319656
-0.000622621
-0.000953481
-0.00131044
-0.00169112
-0.00209264
-0.00251209
-0.00294576
-0.00338951
-0.00383865
-0.00428785
-0.00473099
-0.00516114
-0.00557053
-0.00595051
-0.0062916
-0.00658361
-0.00681475
-0.00697255
-0.00704364
-0.00701412
-0.00686962
-0.00659544
-0.00617687
-0.00559972
-0.00485066
-0.0039179
-0.00279111
-0.00146172
7.6584e-05
0.00182787
0.00379426
0.0059764
0.00837366
0.0109847
0.0138077
0.0168403
0.0200793
0.02352
0.0271618
0.0309843
0.0349795
0.0391283
0.0434074
0.0477884
0.0522397
0.0567266
0.0612133
0.0656645
0.0700469
0.0743302
0.078488
0.0824988
0.0863455
0.0900165
0.0935036
0.0968027
0.0999129
0.102836
0.105577
0.108141
0.110535
0.112767
0.114846
0.116779
0.118577
0.120246
0.121796
0.123234
0.124568
0.125805
0.12695
0.128009
0.128989
0.129894
0.130728
0.131496
0.132201
0.132847
0.133435
0.13397
0.134454
0.134888
0.135274
0.135614
0.13591
0.136161
0.136369
0.136535
0.13666
0.136743
0.136785
0.00116672
0.00112736
0.00104751
0.00092856
0.000770651
0.000574434
0.000340598
6.99304e-05
-0.000236486
-0.000577325
-0.000950991
-0.00135573
-0.00178941
-0.00224956
-0.00273338
-0.00323709
-0.00375677
-0.00428783
-0.00482504
-0.00536225
-0.0058924
-0.0064075
-0.00689867
-0.00735598
-0.00776832
-0.00812317
-0.00840678
-0.00860445
-0.00870064
-0.00867908
-0.00852291
-0.00821515
-0.00773937
-0.00708014
-0.00622348
-0.00515739
-0.00387229
-0.00236109
-0.000619588
0.00135397
0.00355956
0.00599599
0.00866147
0.0115546
0.0146741
0.0180189
0.0215868
0.0253748
0.0293731
0.0335676
0.03794
0.0424643
0.0471081
0.0518337
0.0566
0.061364
0.0660838
0.0707198
0.075237
0.079605
0.0838
0.0878038
0.0916058
0.0951975
0.0985769
0.101745
0.104706
0.107467
0.110035
0.112421
0.114634
0.116685
0.118584
0.120341
0.121967
0.12347
0.12486
0.126145
0.127332
0.128428
0.129441
0.130375
0.131236
0.132028
0.132756
0.133423
0.134034
0.13459
0.135095
0.135551
0.13596
0.136324
0.136645
0.136923
0.137159
0.137355
0.137511
0.137628
0.137706
0.137746
0.00143629
0.00139297
0.00130491
0.00117347
0.000998918
0.000781771
0.000522551
0.000221964
-0.000118966
-0.000499282
-0.000917604
-0.00137236
-0.00186175
-0.00238354
-0.0029348
-0.00351256
-0.00411274
-0.00473105
-0.00536233
-0.0060005
-0.00663845
-0.00726817
-0.00788059
-0.0084653
-0.00901039
-0.00950242
-0.00992651
-0.0102664
-0.0105046
-0.0106226
-0.0106011
-0.0104205
-0.0100616
-0.00950603
-0.00873734
-0.00774135
-0.00650721
-0.00502751
-0.00329777
-0.00131719
0.000912846
0.00338977
0.00611103
0.0090753
0.0122828
0.0157348
0.0194327
0.023376
0.0275629
0.0319754
0.036597
0.041399
0.0463433
0.0513847
0.0564731
0.0615567
0.0665847
0.0715098
0.0762907
0.0808932
0.085291
0.0894659
0.0934045
0.0971031
0.100561
0.103783
0.106775
0.109548
0.112111
0.114479
0.116662
0.118675
0.120529
0.122237
0.123809
0.125257
0.12659
0.127818
0.128949
0.129991
0.130951
0.131834
0.132646
0.133392
0.134076
0.134702
0.135275
0.135796
0.136268
0.136695
0.137077
0.137418
0.137717
0.137976
0.138197
0.13838
0.138526
0.138635
0.138708
0.138745
0.00174959
0.00170211
0.0016056
0.00146142
0.00126981
0.00103113
0.000745749
0.000414188
3.78388e-05
-0.000383326
-0.000847941
-0.00135472
-0.00190214
-0.00248815
-0.0031102
-0.00376551
-0.00445067
-0.00516136
-0.00589266
-0.00663865
-0.0073924
-0.00814599
-0.00889016
-0.00961406
-0.0103051
-0.0109491
-0.0115299
-0.0120294
-0.0124279
-0.0127045
-0.0128371
-0.0128028
-0.0125787
-0.0121431
-0.0114762
-0.0105612
-0.0093856
-0.00794107
-0.00622427
-0.00423551
-0.00197887
0.000540735
0.00331894
0.00635389
0.00964735
0.0132045
0.0170322
0.0211364
0.0255189
0.0301702
0.0350702
0.0401876
0.0454777
0.0508851
0.056348
0.0618023
0.0671856
0.072441
0.0775196
0.082383
0.0870021
0.0913579
0.09544
0.0992461
0.102779
0.106048
0.109062
0.111835
0.114383
0.116719
0.118861
0.120823
0.12262
0.124267
0.125775
0.127158
0.128425
0.129589
0.130656
0.131637
0.132537
0.133363
0.134121
0.134817
0.135454
0.136036
0.136567
0.13705
0.137488
0.137883
0.138237
0.138552
0.138829
0.139069
0.139273
0.139442
0.139576
0.139677
0.139745
0.139779
0.00211078
0.00205892
0.00195383
0.00179672
0.00158769
0.00132703
0.00101492
0.000651639
0.000238944
-0.000224082
-0.00073632
-0.00129683
-0.00190425
-0.00255685
-0.00325253
-0.00398889
-0.00476302
-0.00557101
-0.00640807
-0.0072687
-0.00814634
-0.00903318
-0.00991987
-0.0107953
-0.0116465
-0.0124584
-0.0132137
-0.0138921
-0.0144716
-0.014929
-0.0152383
-0.0153727
-0.0153047
-0.0150083
-0.0144596
-0.0136383
-0.0125292
-0.0111233
-0.00941837
-0.007418
-0.00512995
-0.00256351
0.000273048
0.00337616
0.0067494
0.0104033
0.0143536
0.0186162
0.0232016
0.0281113
0.0333211
0.0387989
0.0444902
0.0503259
0.0562279
0.0621152
0.0679105
0.0735445
0.0789598
0.0841122
0.0889714
0.093519
0.0977473
0.101658
0.105259
0.108562
0.111586
0.114346
0.116862
0.119153
0.121238
0.123135
0.124861
0.126434
0.127866
0.129173
0.130365
0.131455
0.132451
0.133362
0.134197
0.13496
0.13566
0.1363
0.136886
0.13742
0.137907
0.13835
0.138751
0.139112
0.139436
0.139724
0.139977
0.140196
0.140382
0.140537
0.14066
0.140752
0.140814
0.140846
0.00252402
0.00246765
0.00235394
0.00218374
0.00195708
0.00167416
0.00133505
0.000939962
0.000489331
-1.59575e-05
-0.000576829
-0.00119236
-0.00186136
-0.0025825
-0.00335438
-0.00417496
-0.00504168
-0.00595136
-0.00689967
-0.00788159
-0.00889101
-0.0099204
-0.0109606
-0.0120004
-0.0130267
-0.0140235
-0.0149725
-0.0158522
-0.0166348
-0.0172991
-0.0178118
-0.0181413
-0.0182552
-0.0181214
-0.0177106
-0.0169975
-0.0159636
-0.0145987
-0.0129023
-0.0108821
-0.00855324
-0.00593219
-0.00303462
0.000132214
0.00357328
0.00730681
0.0113617
0.0157705
0.0205596
0.0257418
0.0312981
0.0371908
0.0433527
0.0496953
0.0561174
0.0625155
0.0687917
0.0748615
0.0806568
0.0861284
0.0912464
0.095993
0.100366
0.104373
0.108029
0.111353
0.114368
0.117097
0.119563
0.12179
0.1238
0.125616
0.127256
0.12874
0.130083
0.131302
0.132408
0.133414
0.13433
0.135165
0.135927
0.136622
0.137258
0.137839
0.138369
0.138852
0.139292
0.139692
0.140053
0.140379
0.140671
0.14093
0.141158
0.141356
0.141524
0.141663
0.141774
0.141857
0.141913
0.141942
0.00299355
0.00293265
0.00281033
0.002627
0.00238265
0.00207739
0.0017111
0.00128382
0.000795449
0.000247044
-0.000363239
-0.00103466
-0.00176644
-0.00255779
-0.00340781
-0.00431517
-0.00527777
-0.006293
-0.00735755
-0.00846693
-0.0096156
-0.0107966
-0.0120012
-0.0132185
-0.0144353
-0.0156351
-0.0167983
-0.0179019
-0.0189182
-0.0198172
-0.020564
-0.0211206
-0.0214475
-0.0215052
-0.0212565
-0.0206694
-0.0197202
-0.0183969
-0.0167005
-0.0146459
-0.0122581
-0.00956861
-0.00660389
-0.00337944
0.000109466
0.0038917
0.00801638
0.0125424
0.0175228
0.0229888
0.0289317
0.0353063
0.0420271
0.0489778
0.0560247
0.0630313
0.0698732
0.0764459
0.0826698
0.0884902
0.0938838
0.0988324
0.103343
0.107433
0.111124
0.114447
0.11743
0.120104
0.122498
0.124639
0.126555
0.12827
0.129806
0.131185
0.132425
0.133542
0.134551
0.135463
0.136289
0.13704
0.137723
0.138344
0.138911
0.139427
0.139898
0.140327
0.140717
0.141071
0.141391
0.14168
0.141938
0.142168
0.14237
0.142545
0.142694
0.142817
0.142916
0.142989
0.143039
0.143064
0.00352372
0.00345836
0.00332745
0.00313108
0.00286917
0.00254169
0.00214835
0.00168898
0.00116319
0.000570481
-8.90915e-05
-0.000816855
-0.00161217
-0.0024748
-0.00340443
-0.00440033
-0.00546134
-0.00658561
-0.00777061
-0.00901283
-0.0103076
-0.0116487
-0.0130284
-0.0144363
-0.0158592
-0.0172809
-0.0186813
-0.0200357
-0.0213143
-0.0224826
-0.0235001
-0.0243224
-0.0249009
-0.0251863
-0.0251307
-0.0246921
-0.023839
-0.0225554
-0.0208443
-0.0187297
-0.0162531
-0.0134669
-0.0104211
-0.00714513
-0.00363879
0.000140789
0.00427348
0.00886031
0.0139979
0.0197501
0.0261245
0.0330652
0.0404615
0.0481548
0.0559632
0.0637042
0.0712163
0.0783706
0.0850763
0.0912828
0.0969548
0.102098
0.10673
0.110878
0.114578
0.11787
0.120792
0.123383
0.125677
0.127707
0.129505
0.131097
0.132511
0.133768
0.134888
0.13589
0.136789
0.137597
0.138325
0.138983
0.13958
0.140121
0.140613
0.141061
0.141469
0.14184
0.142178
0.142484
0.142761
0.143011
0.143234
0.143433
0.143608
0.14376
0.143889
0.143996
0.144081
0.144145
0.144189
0.14421
0.00411885
0.00404917
0.00390981
0.00370061
0.00342144
0.00307208
0.00265201
0.00216074
0.00159759
0.000961688
0.000252036
-0.00053189
-0.00139086
-0.00232515
-0.00333507
-0.00442069
-0.00558177
-0.0068175
-0.00812633
-0.00950584
-0.0109526
-0.0124619
-0.0140266
-0.0156375
-0.0172823
-0.0189455
-0.0206069
-0.0222407
-0.023815
-0.0252912
-0.0266235
-0.0277581
-0.0286367
-0.029196
-0.0293744
-0.0291147
-0.0283726
-0.0271246
-0.0253746
-0.0231584
-0.0205415
-0.0176099
-0.0144512
-0.0111253
-0.00764507
-0.00395044
8.51218e-05
0.0046312
0.00985661
0.01588
0.022738
0.0303549
0.038585
0.0472041
0.0559576
0.0645959
0.0729075
0.0807338
0.0879701
0.0945832
0.100539
0.105861
0.110584
0.114755
0.118426
0.121648
0.124472
0.126944
0.129107
0.130998
0.132651
0.134098
0.135367
0.136483
0.137468
0.138341
0.139117
0.139809
0.140429
0.140987
0.141491
0.141947
0.14236
0.142736
0.143077
0.143388
0.14367
0.143926
0.144158
0.144368
0.144555
0.144722
0.144869
0.144997
0.145105
0.145196
0.145268
0.145322
0.145358
0.145377
0.00478325
0.00470929
0.00456179
0.00434011
0.00404417
0.00367342
0.00322717
0.00270458
0.00210461
0.00142604
0.00066752
-0.000172306
-0.00109445
-0.00210002
-0.00319011
-0.00436573
-0.00562766
-0.00697616
-0.00841094
-0.00993108
-0.0115347
-0.0132185
-0.0149771
-0.0168024
-0.0186845
-0.0206088
-0.0225557
-0.0244992
-0.0264061
-0.0282344
-0.0299323
-0.0314373
-0.0326768
-0.0335716
-0.0340393
-0.034001
-0.0333924
-0.0321752
-0.0303501
-0.0279663
-0.0251232
-0.021959
-0.0186229
-0.0152376
-0.0118431
-0.00836197
-0.004598
-0.000268918
0.00491636
0.0111715
0.0185674
0.0270148
0.0363022
0.0461036
0.0560526
0.0658015
0.0750722
0.0836753
0.0915117
0.0985239
0.104741
0.110203
0.114971
0.119113
0.122702
0.125805
0.128485
0.130798
0.132792
0.134511
0.135991
0.137267
0.13837
0.139326
0.140158
0.140886
0.141526
0.142092
0.142596
0.143046
0.14345
0.143814
0.144144
0.144443
0.144715
0.144963
0.145188
0.145393
0.145578
0.145746
0.145897
0.146031
0.146149
0.146252
0.14634
0.146414
0.146472
0.146516
0.146546
0.146561
0.00552116
0.00544314
0.0052877
0.00505399
0.00474186
0.00435047
0.00387887
0.00332593
0.00269023
0.00197011
0.00116376
0.000269432
-0.000714649
-0.00179036
-0.00295967
-0.00422459
-0.00558692
-0.00704823
-0.00860975
-0.0102723
-0.0120358
-0.0138987
-0.0158588
-0.0179081
-0.0200411
-0.0222449
-0.0245017
-0.0267866
-0.0290664
-0.0312965
-0.0334197
-0.0353643
-0.0370433
-0.0383554
-0.0391891
-0.0394354
-0.0389977
-0.0378097
-0.0358594
-0.0332079
-0.0299999
-0.026453
-0.0228235
-0.0193337
-0.0160974
-0.0130266
-0.00982081
-0.00601009
-0.00109314
0.00530771
0.0133192
0.0228146
0.0334857
0.0448388
0.0563303
0.0674678
0.0778881
0.0873701
0.0958258
0.103243
0.109679
0.115218
0.119959
0.124002
0.12744
0.130362
0.132843
0.134947
0.136731
0.138241
0.139518
0.140596
0.141509
0.142284
0.142946
0.143515
0.144007
0.144437
0.144814
0.145149
0.145448
0.145716
0.145958
0.146178
0.146378
0.14656
0.146727
0.146878
0.147016
0.147142
0.147255
0.147356
0.147445
0.147523
0.14759
0.147646
0.14769
0.147724
0.147747
0.147759
0.00633642
0.0062544
0.00609112
0.00584634
0.00551891
0.00510787
0.00461209
0.00403014
0.0033602
0.00260016
0.00174779
0.000800817
-0.00024322
-0.00138707
-0.00263369
-0.00398602
-0.00544705
-0.0070198
-0.00870724
-0.010512
-0.012436
-0.0144801
-0.0166435
-0.0189269
-0.0213224
-0.0238221
-0.0264116
-0.0290695
-0.0317642
-0.0344508
-0.0370685
-0.0395371
-0.0417535