/*--------------------------------*- C++ -*----------------------------------*\
| =========                 |                                                 |
| \\      /  F ield         | OpenFOAM: The Open Source CFD Toolbox           |
|  \\    /   O peration     | Version:  2312                                  |
|   \\  /    A nd           | Website:  www.openfoam.com                      |
|    \\/     M anipulation  |                                                 |
\*---------------------------------------------------------------------------*/
FoamFile
{
    version     2.0;
    format      ascii;
    arch        "LSB;label=32;scalar=64";
    class       surfaceScalarField;
    location    "0.1";
    object      phi;
}
// * * * * * * * * * * * * * * * * * * * * * * * * * * * * * * * * * * * * * //

dimensions      [0 3 -1 0 0 0 0];

oriented        oriented;

internalField   nonuniform List<scalar> 
19800
(
-3.00136e-15
-4.82697e-15
-9.92643e-12
9.92374e-12
-1.31562e-11
3.23031e-12
-1.32827e-11
1.27029e-13
-1.21027e-11
-1.17966e-12
-1.06798e-11
-1.42255e-12
-9.39269e-12
-1.28679e-12
-8.31352e-12
-1.07881e-12
-7.41968e-12
-8.93403e-13
-6.67067e-12
-7.4867e-13
-6.03374e-12
-6.36956e-13
-5.47805e-12
-5.56282e-13
-4.97529e-12
-5.03846e-13
-4.50993e-12
-4.66625e-13
-4.05998e-12
-4.50979e-13
-3.63021e-12
-4.30411e-13
-3.22039e-12
-4.10247e-13
-2.83983e-12
-3.811e-13
-2.49404e-12
-3.46536e-13
-2.19516e-12
-2.99595e-13
-1.95143e-12
-2.44023e-13
-1.77584e-12
-1.75279e-13
-1.66885e-12
-1.06328e-13
-1.63842e-12
-2.98865e-14
-1.67654e-12
3.82309e-14
-1.78129e-12
1.04546e-13
-1.93661e-12
1.5519e-13
-2.13148e-12
1.95071e-13
-2.33622e-12
2.05094e-13
-2.53402e-12
1.97837e-13
-2.70241e-12
1.67755e-13
-2.81294e-12
1.09318e-13
-2.84126e-12
2.70734e-14
-2.76651e-12
-7.55087e-14
-2.56669e-12
-1.99968e-13
-2.20992e-12
-3.56622e-13
-1.68137e-12
-5.28572e-13
-9.66917e-13
-7.14845e-13
-5.04973e-14
-9.16986e-13
1.06267e-12
-1.11351e-12
2.39014e-12
-1.32738e-12
3.93245e-12
-1.54198e-12
5.68288e-12
-1.75014e-12
7.62663e-12
-1.94368e-12
9.74136e-12
-2.11499e-12
1.20203e-11
-2.27943e-12
1.44365e-11
-2.41673e-12
1.69587e-11
-2.52233e-12
1.95645e-11
-2.60615e-12
2.22177e-11
-2.65374e-12
2.48876e-11
-2.67059e-12
2.75409e-11
-2.65393e-12
3.01444e-11
-2.60426e-12
3.26665e-11
-2.52288e-12
3.5077e-11
-2.4112e-12
3.73439e-11
-2.26773e-12
3.94495e-11
-2.10664e-12
4.13688e-11
-1.92022e-12
4.30825e-11
-1.71435e-12
4.45704e-11
-1.48804e-12
4.58267e-11
-1.25599e-12
4.68479e-11
-1.021e-12
4.76275e-11
-7.79582e-13
4.81495e-11
-5.22043e-13
4.84432e-11
-2.94072e-13
4.85203e-11
-7.74649e-14
4.83666e-11
1.53685e-13
4.80222e-11
3.45049e-13
4.74891e-11
5.33549e-13
4.67798e-11
7.09305e-13
4.59137e-11
8.65723e-13
4.49207e-11
9.92148e-13
4.38152e-11
1.10525e-12
4.26132e-11
1.20191e-12
4.13309e-11
1.2821e-12
3.99837e-11
1.34704e-12
3.85882e-11
1.39527e-12
3.71606e-11
1.42692e-12
3.57003e-11
1.46015e-12
3.42111e-11
1.48893e-12
3.2696e-11
1.51556e-12
3.1164e-11
1.53187e-12
2.95952e-11
1.56832e-12
2.79679e-11
1.62768e-12
2.62477e-11
1.7193e-12
2.4426e-11
1.8216e-12
2.25344e-11
1.8916e-12
2.06219e-11
1.91334e-12
1.87333e-11
1.88875e-12
1.68999e-11
1.83355e-12
1.51255e-11
1.77382e-12
1.34083e-11
1.71715e-12
1.17445e-11
1.66365e-12
1.01131e-11
1.63074e-12
8.47537e-12
1.63715e-12
6.80366e-12
1.67232e-12
5.07545e-12
1.72579e-12
3.29976e-12
1.77664e-12
1.51315e-12
1.78432e-12
1.51576e-12
9.92528e-12
-9.9298e-12
9.92637e-12
9.92371e-12
6.39651e-12
6.76104e-12
3.59697e-12
2.92722e-12
1.76599e-12
6.51866e-13
5.76908e-13
-2.3288e-13
-1.78138e-13
-5.3106e-13
-6.33317e-13
-6.22963e-13
-9.15112e-13
-6.1121e-13
-1.11315e-12
-5.50846e-13
-1.27089e-12
-4.80257e-13
-1.42782e-12
-4.01065e-13
-1.58355e-12
-3.50048e-13
-1.75442e-12
-2.97403e-13
-1.95301e-12
-2.53564e-13
-2.1752e-12
-2.09102e-13
-2.42031e-12
-1.66075e-13
-2.68986e-12
-1.12631e-13
-2.98692e-12
-5.03704e-14
-3.31992e-12
3.31187e-14
-3.68037e-12
1.16883e-13
-4.06134e-12
2.06512e-13
-4.45769e-12
2.90629e-13
-4.86902e-12
3.81513e-13
-5.28591e-12
4.54855e-13
-5.6949e-12
5.13404e-13
-6.08528e-12
5.45783e-13
-6.42687e-12
5.36908e-13
-6.73158e-12
5.0944e-13
-6.97638e-12
4.41349e-13
-7.13667e-12
3.26107e-13
-7.19106e-12
1.61896e-13
-7.12676e-12
-3.82629e-14
-6.91043e-12
-2.9203e-13
-6.56356e-12
-5.46705e-13
-6.00674e-12
-9.13558e-13
-5.25612e-12
-1.27972e-12
-4.29237e-12
-1.67926e-12
-3.10522e-12
-2.10453e-12
-1.70495e-12
-2.51371e-12
-5.24799e-14
-2.97945e-12
1.85822e-12
-3.45237e-12
3.99917e-12
-3.8912e-12
6.36876e-12
-4.31367e-12
8.94988e-12
-4.69645e-12
1.17302e-11
-5.06014e-12
1.46845e-11
-5.37163e-12
1.77844e-11
-5.62287e-12
2.09911e-11
-5.81354e-12
2.42701e-11
-5.93396e-12
2.75808e-11
-5.98286e-12
3.08817e-11
-5.95619e-12
3.41309e-11
-5.85472e-12
3.72867e-11
-5.67998e-12
4.03094e-11
-5.43539e-12
4.31635e-11
-5.12353e-12
4.58152e-11
-4.75964e-12
4.82407e-11
-4.34624e-12
5.04103e-11
-3.88423e-12
5.23073e-11
-3.38549e-12
5.39198e-11
-2.86876e-12
5.52421e-11
-2.34332e-12
5.62621e-11
-1.79969e-12
5.69947e-11
-1.25472e-12
5.7424e-11
-7.23414e-13
5.76002e-11
-2.53343e-13
5.75123e-11
2.41982e-13
5.71929e-11
6.65296e-13
5.66403e-11
1.08647e-12
5.58787e-11
1.46995e-12
5.49196e-11
1.82416e-12
5.37965e-11
2.11413e-12
5.25288e-11
2.37223e-12
5.11315e-11
2.59922e-12
4.96166e-11
2.79705e-12
4.79985e-11
2.96477e-12
4.62903e-11
3.1025e-12
4.45043e-11
3.21195e-12
4.26511e-11
3.31365e-12
4.07292e-11
3.41067e-12
3.87435e-11
3.50047e-12
3.67146e-11
3.56089e-12
3.46584e-11
3.62394e-12
3.25844e-11
3.70161e-12
3.05076e-11
3.79543e-12
2.84515e-11
3.87866e-12
2.64092e-11
3.93431e-12
2.43685e-11
3.95505e-12
2.23243e-11
3.9333e-12
2.02771e-11
3.88023e-12
1.82076e-11
3.84033e-12
1.61354e-11
3.78888e-12
1.40701e-11
3.72835e-12
1.20093e-11
3.69152e-12
9.95361e-12
3.69116e-12
7.90303e-12
3.72272e-12
5.85976e-12
3.76815e-12
3.80959e-12
3.827e-12
1.75617e-12
3.83617e-12
3.26959e-12
3.23166e-12
-1.31609e-11
6.76364e-12
6.39261e-12
6.76458e-12
6.76077e-12
5.57605e-12
4.11633e-12
4.17722e-12
2.05129e-12
3.04438e-12
9.00661e-13
2.18819e-12
3.25894e-13
1.55537e-12
1.05105e-14
1.06779e-12
-1.23324e-13
6.70509e-13
-1.53797e-13
3.37744e-13
-1.4832e-13
3.37642e-14
-9.83393e-14
-2.74318e-13
-4.33312e-14
-5.82417e-13
9.50708e-15
-9.10001e-13
7.31094e-14
-1.26114e-12
1.41308e-13
-1.64787e-12
2.19993e-13
-2.0642e-12
3.03079e-13
-2.50984e-12
3.94838e-13
-2.971e-12
4.94122e-13
-3.45654e-12
6.02506e-13
-3.95691e-12
7.06989e-13
-4.46743e-12
8.01128e-13
-4.97244e-12
8.86378e-13
-5.46857e-12
9.50853e-13
-5.94324e-12
9.88023e-13
-6.38637e-12
9.88805e-13
-6.79439e-12
9.4448e-13
-7.13898e-12
8.53087e-13
-7.42328e-12
7.24357e-13
-7.61947e-12
5.21048e-13
-7.70742e-12
2.49021e-13
-7.67136e-12
-7.46019e-14
-7.49077e-12
-4.72539e-13
-7.17432e-12
-8.63018e-13
-6.65287e-12
-1.43503e-12
-5.93378e-12
-1.99897e-12
-5.00282e-12
-2.61039e-12
-3.83595e-12
-3.27153e-12
-2.43797e-12
-3.91175e-12
-7.97149e-13
-4.62016e-12
1.11632e-12
-5.36543e-12
3.27887e-12
-6.05324e-12
5.68167e-12
-6.71613e-12
8.30361e-12
-7.3182e-12
1.11424e-11
-7.89892e-12
1.41681e-11
-8.3979e-12
1.73464e-11
-8.80196e-12
2.06407e-11
-9.10872e-12
2.40119e-11
-9.30614e-12
2.74196e-11
-9.39185e-12
3.0817e-11
-9.35498e-12
3.41607e-11
-9.19956e-12
3.74069e-11
-8.92723e-12
4.05141e-11
-8.54331e-12
4.34439e-11
-8.05433e-12
4.61621e-11
-7.47898e-12
4.86419e-11
-6.82719e-12
5.08575e-11
-6.10088e-12
5.27927e-11
-5.32173e-12
5.44384e-11
-4.51496e-12
5.57848e-11
-3.68918e-12
5.68244e-11
-2.83856e-12
5.75801e-11
-2.00986e-12
5.80255e-11
-1.16851e-12
5.8211e-11
-4.37992e-13
5.81278e-11
3.25813e-13
5.78068e-11
9.8651e-13
5.72515e-11
1.64156e-12
5.6482e-11
2.23819e-12
5.55137e-11
2.79171e-12
5.43725e-11
3.25483e-12
5.30749e-11
3.66935e-12
5.16387e-11
4.03582e-12
5.00782e-11
4.35778e-12
4.84077e-11
4.6348e-12
4.66431e-11
4.86548e-12
4.47935e-11
5.06073e-12
4.28808e-11
5.22533e-12
4.09099e-11
5.38112e-12
3.88815e-11
5.52881e-12
3.68243e-11
5.61899e-12
3.47522e-11
5.6967e-12
3.26806e-11
5.77328e-12
3.06172e-11
5.85852e-12
2.85645e-11
5.93228e-12
2.65234e-11
5.97481e-12
2.44792e-11
6.00028e-12
2.24317e-11
5.98007e-12
2.03616e-11
5.94996e-12
1.82844e-11
5.91491e-12
1.62144e-11
5.85781e-12
1.41387e-11
5.80326e-12
1.20602e-11
5.76863e-12
9.98973e-12
5.76181e-12
7.92459e-12
5.7875e-12
5.88335e-12
5.81061e-12
3.84102e-12
5.86717e-12
1.81222e-12
5.86772e-12
5.08111e-12
1.2864e-13
-1.32891e-11
2.92988e-12
3.59202e-12
4.12014e-12
5.57109e-12
4.121e-12
4.11614e-12
3.61377e-12
2.5593e-12
3.00393e-12
1.51131e-12
2.43652e-12
8.94013e-13
1.91853e-12
5.29018e-13
1.46996e-12
3.25486e-13
1.07493e-12
2.41105e-13
7.09771e-13
2.16292e-13
3.80152e-13
2.30337e-13
5.4897e-14
2.80784e-13
-2.76953e-13
3.40306e-13
-6.27715e-13
4.23141e-13
-1.00267e-12
5.15889e-13
-1.40336e-12
6.20497e-13
-1.8353e-12
7.34791e-13
-2.29717e-12
8.56311e-13
-2.78299e-12
9.79441e-13
-3.28957e-12
1.10863e-12
-3.81371e-12
1.23088e-12
-4.35004e-12
1.33741e-12
-4.88785e-12
1.42419e-12
-5.41886e-12
1.48168e-12
-5.93278e-12
1.50144e-12
-6.42127e-12
1.47646e-12
-6.87351e-12
1.3957e-12
-7.27536e-12
1.25391e-12
-7.60469e-12
1.05279e-12
-7.8672e-12
7.8288e-13
-8.01811e-12
3.99488e-13
-8.04354e-12
-4.93206e-14
-7.92993e-12
-5.8596e-13
-7.65615e-12
-1.13632e-12
-7.19734e-12
-1.89331e-12
-6.53364e-12
-2.66236e-12
-5.65151e-12
-3.49256e-12
-4.52317e-12
-4.40005e-12
-3.14035e-12
-5.29458e-12
-1.49237e-12
-6.26773e-12
4.10538e-13
-7.2674e-12
2.58159e-12
-8.22326e-12
5.02547e-12
-9.15955e-12
7.71689e-12
-1.00098e-11
1.0631e-11
-1.08133e-11
1.37423e-11
-1.15096e-11
1.70204e-11
-1.20805e-11
2.04259e-11
-1.25149e-11
2.39171e-11
-1.27982e-11
2.74411e-11
-1.29171e-11
3.09573e-11
-1.28724e-11
3.44159e-11
-1.26589e-11
3.77695e-11
-1.22813e-11
4.09738e-11
-1.17482e-11
4.39906e-11
-1.10721e-11
4.6781e-11
-1.02711e-11
4.93157e-11
-9.36393e-12
5.15747e-11
-8.36128e-12
5.35436e-11
-7.29095e-12
5.52061e-11
-6.177e-12
5.65518e-11
-5.03392e-12
5.75991e-11
-3.88503e-12
5.83449e-11
-2.75545e-12
5.87764e-11
-1.60003e-12
5.89333e-11
-5.94125e-13
5.88188e-11
4.4088e-13
5.84426e-11
1.36241e-12
5.78293e-11
2.2544e-12
5.70081e-11
3.05835e-12
5.60048e-11
3.79417e-12
5.48084e-11
4.45163e-12
5.34567e-11
5.02146e-12
5.19549e-11
5.53801e-12
5.03339e-11
5.97779e-12
4.86089e-11
6.35871e-12
4.67925e-11
6.68021e-12
4.4908e-11
6.94489e-12
4.29704e-11
7.16283e-12
4.09863e-11
7.3646e-12
3.89552e-11
7.56107e-12
3.69013e-11
7.67327e-12
3.48225e-11
7.77499e-12
3.27398e-11
7.85692e-12
3.06656e-11
7.93296e-12
2.85934e-11
8.00507e-12
2.65167e-11
8.05033e-12
2.44561e-11
8.06151e-12
2.23855e-11
8.0493e-12
2.03234e-11
8.01208e-12
1.82673e-11
7.9697e-12
1.62043e-11
7.91933e-12
1.41432e-11
7.86621e-12
1.20659e-11
7.8431e-12
9.99274e-12
7.83599e-12
7.93996e-12
7.83733e-12
5.90029e-12
7.8518e-12
3.88235e-12
7.88213e-12
1.86789e-12
7.88283e-12
6.95131e-12
-1.17815e-12
-1.21105e-11
6.54627e-13
1.7598e-12
2.05511e-12
4.17122e-12
2.56414e-12
3.60789e-12
2.56511e-12
2.55917e-12
2.33012e-12
1.74701e-12
2.02019e-12
1.20448e-12
1.69351e-12
8.56115e-13
1.36038e-12
6.58951e-13
1.0518e-12
5.49812e-13
7.49864e-13
5.17925e-13
4.51716e-13
5.27694e-13
1.52928e-13
5.78539e-13
-1.72e-13
6.64416e-13
-5.12241e-13
7.63107e-13
-8.78366e-13
8.82205e-13
-1.27424e-12
1.01658e-12
-1.70199e-12
1.16232e-12
-2.16239e-12
1.31599e-12
-2.65519e-12
1.47138e-12
-3.17139e-12
1.62429e-12
-3.7088e-12
1.76828e-12
-4.26413e-12
1.89294e-12
-4.82945e-12
1.98942e-12
-5.39627e-12
2.04779e-12
-5.95499e-12
2.05897e-12
-6.49315e-12
2.01334e-12
-7.00201e-12
1.90355e-12
-7.46825e-12
1.71939e-12
-7.86767e-12
1.45152e-12
-8.21962e-12
1.13412e-12
-8.44978e-12
6.29127e-13
-8.56553e-12
6.6442e-14
-8.54504e-12
-6.0574e-13
-8.32096e-12
-1.35928e-12
-7.94994e-12
-2.26338e-12
-7.3613e-12
-3.25062e-12
-6.54608e-12
-4.30789e-12
-5.47639e-12
-5.46976e-12
-4.11157e-12
-6.65891e-12
-2.4715e-12
-7.90693e-12
-5.54112e-13
-9.18398e-12
1.66364e-12
-1.04406e-11
4.14714e-12
-1.16432e-11
6.92174e-12
-1.27849e-11
9.94065e-12
-1.38324e-11
1.31731e-11
-1.47416e-11
1.65916e-11
-1.5499e-11
2.01501e-11
-1.60739e-11
2.38011e-11
-1.64502e-11
2.74959e-11
-1.66128e-11
3.11797e-11
-1.65567e-11
3.48005e-11
-1.62799e-11
3.83066e-11
-1.57881e-11
4.16503e-11
-1.5093e-11
4.47905e-11
-1.42138e-11
4.76871e-11
-1.31693e-11
5.03062e-11
-1.19843e-11
5.26303e-11
-1.06858e-11
5.46423e-11
-9.30256e-12
5.63261e-11
-7.86044e-12
5.76809e-11
-6.38864e-12
5.87115e-11
-4.91588e-12
5.94124e-11
-3.45644e-12
5.98443e-11
-2.03197e-12
5.9932e-11
-6.81342e-13
5.97653e-11
6.08018e-13
5.93103e-11
1.81696e-12
5.86305e-11
2.93383e-12
5.7739e-11
3.94976e-12
5.66714e-11
4.86168e-12
5.53944e-11
5.72905e-12
5.39766e-11
6.43945e-12
5.24017e-11
7.11264e-12
5.07137e-11
7.66428e-12
4.89286e-11
8.14274e-12
4.70582e-11
8.55068e-12
4.51199e-11
8.88255e-12
4.31381e-11
9.14465e-12
4.11211e-11
9.38086e-12
3.90872e-11
9.59532e-12
3.70101e-11
9.75151e-12
3.49125e-11
9.87253e-12
3.28116e-11
9.95768e-12
3.07136e-11
1.00298e-11
2.86119e-11
1.01066e-11
2.65278e-11
1.01341e-11
2.4448e-11
1.01413e-11
2.23706e-11
1.01276e-11
2.03021e-11
1.00818e-11
1.82433e-11
1.00309e-11
1.61811e-11
9.98051e-12
1.41065e-11
9.93992e-12
1.20383e-11
9.91143e-12
9.98111e-12
9.89308e-12
7.93689e-12
9.88315e-12
5.91235e-12
9.87594e-12
3.91478e-12
9.8807e-12
1.90869e-12
9.88644e-12
8.85825e-12
-1.42126e-12
-1.06889e-11
-2.30247e-13
5.69377e-13
9.04429e-13
3.03725e-12
1.51612e-12
2.99701e-12
1.75295e-12
2.32306e-12
1.75378e-12
1.74671e-12
1.63314e-12
1.32556e-12
1.45069e-12
1.03911e-12
1.24133e-12
8.68918e-13
1.00872e-12
7.82797e-13
7.67742e-13
7.58728e-13
5.05902e-13
7.88847e-13
2.30598e-13
8.53101e-13
-6.65148e-14
9.61272e-13
-3.88046e-13
1.08501e-12
-7.42984e-13
1.23772e-12
-1.13238e-12
1.40612e-12
-1.5556e-12
1.58495e-12
-2.01522e-12
1.77462e-12
-2.5099e-12
1.96534e-12
-3.03498e-12
2.14932e-12
-3.59016e-12
2.32379e-12
-4.17086e-12
2.47371e-12
-4.76785e-12
2.58571e-12
-5.37732e-12
2.65594e-12
-5.99027e-12
2.67053e-12
-6.59655e-12
2.61862e-12
-7.18287e-12
2.48919e-12
-7.7337e-12
2.26951e-12
-8.23468e-12
1.95149e-12
-8.64957e-12
1.54801e-12
-8.99649e-12
9.7567e-13
-9.22749e-12
2.9803e-13
-9.30703e-12
-5.24928e-13
-9.20752e-12
-1.45753e-12
-8.92987e-12
-2.54032e-12
-8.42992e-12
-3.75039e-12
-7.69728e-12
-5.04043e-12
-6.68129e-12
-6.48528e-12
-5.36546e-12
-7.97391e-12
-3.7493e-12
-9.52253e-12
-1.81785e-12
-1.11156e-11
4.27177e-13
-1.26862e-11
3.001e-12
-1.42174e-11
5.87832e-12
-1.56621e-11
9.03259e-12
-1.69861e-11
1.24227e-11
-1.81309e-11
1.60233e-11
-1.90993e-11
1.97803e-11
-1.98313e-11
2.36429e-11
-2.03133e-11
2.75549e-11
-2.05252e-11
3.14568e-11
-2.04588e-11
3.5289e-11
-2.01127e-11
3.89954e-11
-1.94957e-11
4.25216e-11
-1.86207e-11
4.58225e-11
-1.75158e-11
4.88569e-11
-1.6204e-11
5.15881e-11
-1.47157e-11
5.39965e-11
-1.30945e-11
5.60648e-11
-1.13709e-11
5.77794e-11
-9.57528e-12
5.91412e-11
-7.75115e-12
6.01446e-11
-5.92018e-12
6.08181e-11
-4.13019e-12
6.11788e-11
-2.39262e-12
6.12081e-11
-7.10444e-13
6.09536e-11
8.62975e-13
6.0429e-11
2.34198e-12
5.96558e-11
3.70745e-12
5.86895e-11
4.91623e-12
5.74958e-11
6.05516e-12
5.6141e-11
7.08352e-12
5.46273e-11
7.95282e-12
5.29763e-11
8.76265e-12
5.12167e-11
9.42386e-12
4.93663e-11
9.99241e-12
4.74353e-11
1.04817e-11
4.54338e-11
1.08833e-11
4.33805e-11
1.11967e-11
4.13204e-11
1.14411e-11
3.92392e-11
1.1676e-11
3.71308e-11
1.18593e-11
3.50062e-11
1.19978e-11
3.28772e-11
1.20861e-11
3.07583e-11
1.21486e-11
2.86494e-11
1.22148e-11
2.6548e-11
1.22358e-11
2.44478e-11
1.22421e-11
2.23579e-11
1.22191e-11
2.02732e-11
1.21641e-11
1.82003e-11
1.21031e-11
1.61334e-11
1.20472e-11
1.40645e-11
1.20045e-11
1.20062e-11
1.19695e-11
9.95616e-12
1.19407e-11
7.92602e-12
1.19141e-11
5.91612e-12
1.18852e-11
3.91883e-12
1.18781e-11
1.91421e-12
1.18929e-11
1.0774e-11
-1.28583e-12
-9.40279e-12
-5.28108e-13
-1.87649e-13
3.29183e-13
2.18073e-12
8.98708e-13
2.4282e-12
1.21037e-12
2.01194e-12
1.33261e-12
1.62491e-12
1.33349e-12
1.32527e-12
1.25771e-12
1.11573e-12
1.13488e-12
9.92613e-13
9.71395e-13
9.46781e-13
7.88388e-13
9.41669e-13
5.74024e-13
1.00287e-12
3.31308e-13
1.09574e-12
6.46151e-14
1.22846e-12
-2.38797e-13
1.3892e-12
-5.79369e-13
1.5787e-12
-9.55716e-13
1.78209e-12
-1.37332e-12
2.00163e-12
-1.83153e-12
2.23205e-12
-2.3294e-12
2.46309e-12
-2.86834e-12
2.6886e-12
-3.44341e-12
2.89897e-12
-4.05432e-12
3.08397e-12
-4.6961e-12
3.22619e-12
-5.36022e-12
3.31875e-12
-6.03899e-12
3.3485e-12
-6.72223e-12
3.30146e-12
-7.39798e-12
3.16439e-12
-8.05247e-12
2.92292e-12
-8.66644e-12
2.56414e-12
-9.19931e-12
2.08004e-12
-9.67066e-12
1.44717e-12
-1.00145e-11
6.42842e-13
-1.0244e-11
-2.94432e-13
-1.02914e-11
-1.40953e-12
-1.01405e-11
-2.69094e-12
-9.7649e-12
-4.12571e-12
-9.10683e-12
-5.69787e-12
-8.17595e-12
-7.41543e-12
-6.91888e-12
-9.23059e-12
-5.31453e-12
-1.11271e-11
-3.38464e-12
-1.30461e-11
-1.08528e-12
-1.49861e-11
1.58142e-12
-1.68838e-11
4.57636e-12
-1.86562e-11
7.88188e-12
-2.02909e-11
1.14681e-11
-2.17167e-11
1.52959e-11
-2.29269e-11
1.93015e-11
-2.38367e-11
2.34302e-11
-2.44418e-11
2.76163e-11
-2.47116e-11
3.17919e-11
-2.46355e-11
3.58907e-11
-2.42128e-11
3.98488e-11
-2.34549e-11
4.36077e-11
-2.238e-11
4.71133e-11
-2.10214e-11
5.03201e-11
-1.94109e-11
5.31934e-11
-1.75892e-11
5.57059e-11
-1.56075e-11
5.78405e-11
-1.35058e-11
5.95869e-11
-1.13218e-11
6.09367e-11
-9.10145e-12
6.19331e-11
-6.91754e-12
6.25514e-11
-4.74917e-12
6.28216e-11
-2.66262e-12
6.27683e-11
-6.56606e-13
6.24101e-11
1.2223e-12
6.17832e-11
2.96987e-12
6.09092e-11
4.58184e-12
5.97902e-11
6.03465e-12
5.8488e-11
7.35722e-12
5.70349e-11
8.53608e-12
5.54078e-11
9.58034e-12
5.3669e-11
1.04997e-11
5.18203e-11
1.1272e-11
4.98878e-11
1.19246e-11
4.78813e-11
1.24865e-11
4.58096e-11
1.29554e-11
4.36928e-11
1.33134e-11
4.15632e-11
1.35702e-11
3.9418e-11
1.38207e-11
3.72643e-11
1.40109e-11
3.51038e-11
1.41581e-11
3.29402e-11
1.42482e-11
3.07921e-11
1.42992e-11
2.8672e-11
1.43353e-11
2.65496e-11
1.43579e-11
2.44376e-11
1.43525e-11
2.23353e-11
1.43207e-11
2.02416e-11
1.42596e-11
1.8157e-11
1.41866e-11
1.60852e-11
1.41234e-11
1.40209e-11
1.40707e-11
1.19662e-11
1.40275e-11
9.92007e-12
1.3986e-11
7.89378e-12
1.3941e-11
5.88626e-12
1.38945e-11
3.89434e-12
1.3872e-11
1.88991e-12
1.38965e-11
1.26642e-11
-1.07674e-12
-8.32568e-12
-6.20722e-13
-6.42979e-13
1.43509e-14
1.54632e-12
5.33793e-13
1.90929e-12
8.61988e-13
1.68417e-12
1.04613e-12
1.44131e-12
1.12393e-12
1.24832e-12
1.12499e-12
1.11572e-12
1.07044e-12
1.04809e-12
9.7232e-13
1.04545e-12
8.36902e-13
1.07735e-12
6.71069e-13
1.16908e-12
4.65432e-13
1.30215e-12
2.2516e-13
1.4697e-12
-5.45347e-14
1.66949e-12
-3.75017e-13
1.899e-12
-7.4194e-13
2.14823e-12
-1.15197e-12
2.41094e-12
-1.60873e-12
2.68867e-12
-2.11053e-12
2.96521e-12
-2.65868e-12
3.23683e-12
-3.25805e-12
3.49763e-12
-3.91344e-12
3.73802e-12
-4.60447e-12
3.91596e-12
-5.33229e-12
4.04598e-12
-6.08802e-12
4.10422e-12
-6.86214e-12
4.07546e-12
-7.64315e-12
3.94462e-12
-8.41607e-12
3.69457e-12
-9.15985e-12
3.30683e-12
-9.84345e-12
2.7633e-12
-1.04764e-11
2.08041e-12
-1.09905e-11
1.15736e-12
-1.13635e-11
7.8801e-14
-1.15719e-11
-1.20112e-12
-1.15808e-11
-2.6819e-12
-1.13454e-11
-4.3605e-12
-1.08244e-11
-6.21809e-12
-9.98855e-12
-8.25084e-12
-8.80551e-12
-1.04136e-11
-7.24982e-12
-1.26828e-11
-5.29179e-12
-1.5004e-11
-2.93834e-12
-1.73392e-11
-1.92373e-13
-1.96293e-11
2.95969e-12
-2.18078e-11
6.4584e-12
-2.37892e-11
1.0293e-11
-2.5551e-11
1.43865e-11
-2.70199e-11
1.86991e-11
-2.8149e-11
2.31555e-11
-2.88986e-11
2.76806e-11
-2.92378e-11
3.2197e-11
-2.91533e-11
3.66281e-11
-2.8645e-11
4.08992e-11
-2.77264e-11
4.49438e-11
-2.64245e-11
4.86988e-11
-2.47767e-11
5.21162e-11
-2.28288e-11
5.51593e-11
-2.06324e-11
5.77954e-11
-1.82432e-11
6.00087e-11
-1.57187e-11
6.17924e-11
-1.31054e-11
6.3157e-11
-1.04668e-11
6.40953e-11
-7.85668e-12
6.46389e-11
-5.29299e-12
6.48095e-11
-2.83237e-12
6.46378e-11
-4.83775e-13
6.41501e-11
1.71115e-12
6.33842e-11
3.73583e-12
6.23613e-11
5.60491e-12
6.10862e-11
7.30931e-12
5.96511e-11
8.79327e-12
5.80522e-11
1.01346e-11
5.631e-11
1.13221e-11
5.44525e-11
1.23558e-11
5.2495e-11
1.32281e-11
5.04651e-11
1.39552e-11
4.83739e-11
1.4577e-11
4.62308e-11
1.50984e-11
4.40428e-11
1.55015e-11
4.1822e-11
1.57896e-11
3.9619e-11
1.60241e-11
3.7413e-11
1.62166e-11
3.52088e-11
1.63627e-11
3.30051e-11
1.64508e-11
3.08223e-11
1.64819e-11
2.86665e-11
1.64884e-11
2.65155e-11
1.65077e-11
2.44006e-11
1.64673e-11
2.22957e-11
1.64235e-11
2.02002e-11
1.6355e-11
1.81125e-11
1.6272e-11
1.60366e-11
1.61977e-11
1.39706e-11
1.61345e-11
1.19145e-11
1.60842e-11
9.86858e-12
1.60321e-11
7.83834e-12
1.59689e-11
5.82455e-12
1.59067e-11
3.83269e-12
1.58666e-11
1.84175e-12
1.58882e-11
1.4506e-11
-8.91842e-13
-7.4334e-12
-6.08355e-13
-9.26051e-13
-1.19761e-13
1.05805e-12
3.30369e-13
1.45941e-12
6.64666e-13
1.35021e-12
8.75748e-13
1.23084e-12
1.0008e-12
1.12414e-12
1.05726e-12
1.06019e-12
1.05824e-12
1.04792e-12
1.0134e-12
1.091e-12
9.25534e-13
1.16611e-12
7.99855e-13
1.29598e-12
6.32725e-13
1.4706e-12
4.24389e-13
1.67891e-12
1.71423e-13
1.92252e-12
-1.26212e-13
2.19604e-12
-4.78568e-13
2.49999e-12
-8.8056e-13
2.81286e-12
-1.33616e-12
3.14463e-12
-1.84736e-12
3.47653e-12
-2.41569e-12
3.80449e-12
-3.03874e-12
4.11932e-12
-3.7112e-12
4.40915e-12
-4.47097e-12
4.6751e-12
-5.27636e-12
4.85148e-12
-6.12043e-12
4.94847e-12
-6.99952e-12
4.95421e-12
-7.90243e-12
4.8466e-12
-8.81536e-12
4.60648e-12
-9.71663e-12
4.20743e-12
-1.05852e-11
3.63162e-12
-1.13702e-11
2.86515e-12
-1.20849e-11
1.87166e-12
-1.26617e-11
6.55369e-13
-1.30691e-11
-7.93651e-13
-1.32605e-11
-2.49017e-12
-1.32011e-11
-4.41943e-12
-1.28491e-11
-6.56963e-12
-1.21367e-11
-8.9627e-12
-1.10491e-11
-1.15005e-11
-9.54267e-12
-1.41882e-11
-7.58868e-12
-1.6957e-11
-5.17994e-12
-1.97475e-11
-2.32177e-12
-2.24876e-11
9.86513e-13
-2.5116e-11
4.719e-12
-2.75212e-11
8.83437e-12
-2.96657e-11
1.32645e-11
-3.14497e-11
1.79529e-11
-3.28379e-11
2.28113e-11
-3.37579e-11
2.77535e-11
-3.41808e-11
3.26883e-11
-3.40885e-11
3.75255e-11
-3.34826e-11
4.21787e-11
-3.23802e-11
4.65695e-11
-3.08163e-11
5.06257e-11
-2.88338e-11
5.42939e-11
-2.64974e-11
5.7532e-11
-2.38696e-11
6.03066e-11
-2.10162e-11
6.26075e-11
-1.80189e-11
6.44274e-11
-1.49258e-11
6.57719e-11
-1.18122e-11
6.66542e-11
-8.73925e-12
6.71052e-11
-5.74349e-12
6.71524e-11
-2.87868e-12
6.68434e-11
-1.74058e-13
6.61891e-11
2.36636e-12
6.52475e-11
4.67772e-12
6.40331e-11
6.81994e-12
6.26075e-11
8.73542e-12
6.09858e-11
1.04153e-11
5.92077e-11
1.19118e-11
5.73125e-11
1.32161e-11
5.53082e-11
1.43599e-11
5.32181e-11
1.5319e-11
5.10688e-11
1.61049e-11
4.88773e-11
1.67689e-11
4.66552e-11
1.73203e-11
4.43814e-11
1.77746e-11
4.20999e-11
1.80703e-11
3.98265e-11
1.82978e-11
3.7566e-11
1.84785e-11
3.5313e-11
1.86159e-11
3.30664e-11
1.86974e-11
3.08401e-11
1.87091e-11
2.86431e-11
1.86852e-11
2.64684e-11
1.868e-11
2.43369e-11
1.85962e-11
2.2231e-11
1.85306e-11
2.01344e-11
1.84491e-11
1.80456e-11
1.83604e-11
1.5972e-11
1.82719e-11
1.39071e-11
1.82e-11
1.18501e-11
1.81384e-11
9.80284e-12
1.80763e-11
7.7698e-12
1.80026e-11
5.75296e-12
1.79247e-11
3.75838e-12
1.78616e-11
1.76209e-12
1.78837e-11
1.62689e-11
-7.46942e-13
-6.68611e-12
-5.47677e-13
-1.12552e-12
-1.51074e-13
6.61227e-13
2.45695e-13
1.06252e-12
5.55525e-13
1.04052e-12
7.89978e-13
9.96767e-13
9.54574e-13
9.6004e-13
1.05464e-12
9.60672e-13
1.10118e-12
1.00211e-12
1.10202e-12
1.09129e-12
1.05854e-12
1.21119e-12
9.72592e-13
1.38366e-12
8.43802e-13
1.60067e-12
6.69998e-13
1.85315e-12
4.47381e-13
2.14488e-12
1.72821e-13
2.47026e-12
-1.54662e-13
2.82757e-12
-5.47382e-13
3.20609e-12
-9.99801e-13
3.59738e-12
-1.51852e-12
3.99483e-12
-2.10738e-12
4.3922e-12
-2.76583e-12
4.77647e-12
-3.49618e-12
5.13868e-12
-4.28327e-12
5.46199e-12
-5.15504e-12
5.72328e-12
-6.12189e-12
5.91514e-12
-7.12123e-12
5.95299e-12
-8.16371e-12
5.88834e-12
-9.2312e-12
5.67322e-12
-1.03088e-11
5.28428e-12
-1.1371e-11
4.69301e-12
-1.2382e-11
3.87557e-12
-1.33175e-11
2.80684e-12
-1.41278e-11
1.46584e-12
-1.47711e-11
-1.50131e-13
-1.51974e-11
-2.06375e-12
-1.53493e-11
-4.26753e-12
-1.51642e-11
-6.7542e-12
-1.46457e-11
-9.47973e-12
-1.36986e-11
-1.24457e-11
-1.22702e-11
-1.5615e-11
-1.03331e-11
-1.88934e-11
-7.87612e-12
-2.22045e-11
-4.89156e-12
-2.54721e-11
-1.39875e-12
-2.86083e-11
2.60786e-12
-3.15271e-11
7.06256e-12
-3.41201e-11
1.1897e-11
-3.62845e-11
1.7038e-11
-3.79796e-11
2.2385e-11
-3.91053e-11
2.78352e-11
-3.96311e-11
3.3281e-11
-3.95345e-11
3.86125e-11
-3.88147e-11
4.37262e-11
-3.74951e-11
4.85276e-11
-3.56188e-11
5.29416e-11
-3.32483e-11
5.69003e-11
-3.04558e-11
6.03592e-11
-2.73279e-11
6.32869e-11
-2.39432e-11
6.56798e-11
-2.04117e-11
6.75221e-11
-1.67685e-11
6.88333e-11
-1.31237e-11
6.96405e-11
-9.54624e-12
6.99604e-11
-6.06328e-12
6.98668e-11
-2.78472e-12
6.93739e-11
3.19768e-13
6.85364e-11
3.20461e-12
6.73778e-11
5.83719e-12
6.59685e-11
8.22915e-12
6.4326e-11
1.03785e-11
6.25002e-11
1.22413e-11
6.05142e-11
1.38974e-11
5.84364e-11
1.52945e-11
5.62539e-11
1.65425e-11
5.40035e-11
1.75701e-11
5.17041e-11
1.84039e-11
4.93875e-11
1.90857e-11
4.70501e-11
1.96586e-11
4.47145e-11
2.011e-11
4.2369e-11
2.04161e-11
4.00195e-11
2.06464e-11
3.76975e-11
2.08008e-11
3.53982e-11
2.09155e-11
3.3115e-11
2.09806e-11
3.08447e-11
2.09787e-11
2.86078e-11
2.09225e-11
2.6411e-11
2.08789e-11
2.42588e-11
2.07479e-11
2.21398e-11
2.06521e-11
2.00394e-11
2.05517e-11
1.79476e-11
2.04519e-11
1.58754e-11
2.03439e-11
1.38148e-11
2.02612e-11
1.1766e-11
2.01901e-11
9.72727e-12
2.01166e-11
7.69721e-12
2.00325e-11
5.68031e-12
1.99426e-11
3.67987e-12
1.98626e-11
1.67657e-12
1.98855e-11
1.79438e-11
-6.35966e-13
-6.05015e-12
-4.78811e-13
-1.28369e-12
-1.4418e-13
3.25781e-13
2.22619e-13
6.95182e-13
5.25047e-13
7.37797e-13
7.6616e-13
7.55487e-13
9.50216e-13
7.75923e-13
1.08683e-12
8.24323e-13
1.17678e-12
9.13051e-13
1.22267e-12
1.04699e-12
1.22423e-12
1.21154e-12
1.18132e-12
1.42817e-12
1.09416e-12
1.68868e-12
9.57802e-13
1.98969e-12
7.69911e-13
2.33279e-12
5.25517e-13
2.71499e-12
2.23267e-13
3.13047e-12
-1.52634e-13
3.5825e-12
-5.89724e-13
4.03443e-12
-1.10612e-12
4.51059e-12
-1.70568e-12
4.99086e-12
-2.39845e-12
5.46844e-12
-3.18492e-12
5.92456e-12
-4.0566e-12
6.33317e-12
-5.01396e-12
6.68014e-12
-6.04009e-12
6.94079e-12
-7.18949e-12
7.10191e-12
-8.38502e-12
7.08321e-12
-9.63517e-12
6.92237e-12
-1.09182e-11
6.56615e-12
-1.22067e-11
5.9807e-12
-1.34673e-11
5.13613e-12
-1.46624e-11
4.00251e-12
-1.57552e-11
2.5591e-12
-1.66837e-11
7.78111e-13
-1.73974e-11
-1.35041e-12
-1.78259e-11
-3.83888e-12
-1.7912e-11
-6.66682e-12
-1.75783e-11
-9.81129e-12
-1.67675e-11
-1.32547e-11
-1.54959e-11
-1.68858e-11
-1.35969e-11
-2.07921e-11
-1.11018e-11
-2.4699e-11
-7.9846e-12
-2.85883e-11
-4.27521e-12
-3.23168e-11
5.54162e-14
-3.58576e-11
4.90738e-12
-3.89724e-11
1.0234e-11
-4.16112e-11
1.5919e-11
-4.36642e-11
2.18612e-11
-4.5047e-11
2.79309e-11
-4.57008e-11
3.39932e-11
-4.55977e-11
3.99186e-11
-4.47411e-11
4.55838e-11
-4.31609e-11
5.08777e-11
-4.0913e-11
5.57082e-11
-3.80791e-11
6.00015e-11
-3.47493e-11
6.37069e-11
-3.10339e-11
6.68066e-11
-2.70433e-11
6.9275e-11
-2.28801e-11
7.11368e-11
-1.86303e-11
7.23839e-11
-1.43711e-11
7.30772e-11
-1.02397e-11
7.32422e-11
-6.22791e-12
7.29626e-11
-2.50496e-12
7.22554e-11
1.02846e-12
7.11782e-11
4.28164e-12
6.97907e-11
7.22484e-12
6.81195e-11
9.89969e-12
6.6264e-11
1.22338e-11
6.41826e-11
1.43232e-11
6.19827e-11
1.60976e-11
5.96694e-11
1.76088e-11
5.72986e-11
1.89134e-11
5.48607e-11
2.00081e-11
5.23886e-11
2.08752e-11
4.99243e-11
2.15496e-11
4.74621e-11
2.21211e-11
4.5024e-11
2.25486e-11
4.25752e-11
2.28656e-11
4.01578e-11
2.30635e-11
3.7777e-11
2.31812e-11
3.54341e-11
2.32568e-11
3.31216e-11
2.32914e-11
3.08272e-11
2.32729e-11
2.85597e-11
2.31878e-11
2.6346e-11
2.30913e-11
2.41679e-11
2.29252e-11
2.20273e-11
2.27923e-11
1.99132e-11
2.26646e-11
1.78244e-11
2.25388e-11
1.57517e-11
2.24162e-11
1.36981e-11
2.23114e-11
1.16608e-11
2.22234e-11
9.63553e-12
2.21385e-11
7.61832e-12
2.20491e-11
5.60776e-12
2.19523e-11
3.60139e-12
2.18651e-11
1.60099e-12
2.18853e-11
1.95444e-11
-5.54884e-13
-5.49585e-12
-3.98297e-13
-1.44198e-12
-9.46013e-14
2.08425e-14
2.34076e-13
3.65574e-13
5.32767e-13
4.38324e-13
7.96185e-13
4.91389e-13
1.01121e-12
5.60563e-13
1.1785e-12
6.57402e-13
1.3065e-12
7.8628e-13
1.39511e-12
9.60119e-13
1.44077e-12
1.16749e-12
1.44185e-12
1.42813e-12
1.39648e-12
1.73456e-12
1.3005e-12
2.08606e-12
1.15037e-12
2.4835e-12
9.40536e-13
2.92551e-12
6.64436e-13
3.40707e-12
3.15816e-13
3.93125e-12
-1.18959e-13
4.46907e-12
-6.36803e-13
5.02823e-12
-1.25251e-12
5.6063e-12
-1.96847e-12
6.18386e-12
-2.7897e-12
6.74491e-12
-3.72355e-12
7.26609e-12
-4.77036e-12
7.72633e-12
-5.93218e-12
8.10228e-12
-7.18584e-12
8.3551e-12
-8.55886e-12
8.4552e-12
-1.0011e-11
8.37311e-12
-1.15224e-11
8.07655e-12
-1.30693e-11
7.52765e-12
-1.46173e-11
6.68507e-12
-1.61275e-11
5.51351e-12
-1.75437e-11
3.97518e-12
-1.88101e-11
2.04387e-12
-1.98662e-11
-2.94523e-13
-2.0634e-11
-3.07027e-12
-2.104e-11
-6.25918e-12
-2.09927e-11
-9.85715e-12
-2.04269e-11
-1.38197e-11
-1.92229e-11
-1.80892e-11
-1.74608e-11
-2.25534e-11
-1.49594e-11
-2.71991e-11
-1.17227e-11
-3.18239e-11
-7.73154e-12
-3.63074e-11
-3.05068e-12
-4.05385e-11
2.29735e-12
-4.43203e-11
8.19761e-12
-4.75108e-11
1.45525e-11
-5.00184e-11
2.12167e-11
-5.17112e-11
2.80337e-11
-5.25182e-11
3.48434e-11
-5.24075e-11
4.14855e-11
-5.1383e-11
4.78112e-11
-4.94865e-11
5.36845e-11
-4.67873e-11
5.90085e-11
-4.34047e-11
6.36761e-11
-3.94179e-11
6.76681e-11
-3.50264e-11
7.09443e-11
-3.03199e-11
7.34867e-11
-2.5423e-11
7.53613e-11
-2.05051e-11
7.64632e-11
-1.54731e-11
7.70569e-11
-1.08338e-11
7.69769e-11
-6.14666e-12
7.6465e-11
-1.99351e-12
7.54984e-11
1.99525e-12
7.41113e-11
5.66798e-12
7.24226e-11
8.91292e-12
7.05044e-11
1.18184e-11
6.83466e-11
1.43923e-11
6.60146e-11
1.66537e-11
6.35514e-11
1.85607e-11
6.10005e-11
2.01601e-11
5.84023e-11
2.15115e-11
5.57734e-11
2.26372e-11
5.31251e-11
2.35228e-11
5.04777e-11
2.41963e-11
4.78597e-11
2.47374e-11
4.52937e-11
2.5115e-11
4.27581e-11
2.5401e-11
4.02569e-11
2.55658e-11
3.78044e-11
2.56342e-11
3.54107e-11
2.5651e-11
3.30694e-11
2.56337e-11
3.07584e-11
2.55846e-11
2.84792e-11
2.54705e-11
2.62589e-11
2.53141e-11
2.40574e-11
2.5125e-11
2.18984e-11
2.49495e-11
1.9776e-11
2.47862e-11
1.76803e-11
2.46337e-11
1.56081e-11