/*--------------------------------*- C++ -*----------------------------------*\
| =========                 |                                                 |
| \\      /  F ield         | OpenFOAM: The Open Source CFD Toolbox           |
|  \\    /   O peration     | Version:  2312                                  |
|   \\  /    A nd           | Website:  www.openfoam.com                      |
|    \\/     M anipulation  |                                                 |
\*---------------------------------------------------------------------------*/
FoamFile
{
    version     2.0;
    format      ascii;
    arch        "LSB;label=32;scalar=64";
    class       volVectorField;
    location    "0.1";
    object      U;
}
// * * * * * * * * * * * * * * * * * * * * * * * * * * * * * * * * * * * * * //

dimensions      [0 1 -1 0 0 0 0];

internalField   nonuniform List<vector> 
10000
(
(2.75003e-06 2.74965e-06 0)
(-2.93659e-06 4.33849e-06 0)
(-4.31352e-06 9.93895e-07 0)
(-5.91964e-06 -1.03317e-07 0)
(-5.21358e-06 -3.44256e-07 0)
(-4.65234e-06 -3.78055e-07 0)
(-4.06117e-06 -3.15859e-07 0)
(-3.56823e-06 -2.47684e-07 0)
(-3.16298e-06 -1.97768e-07 0)
(-2.82735e-06 -1.61634e-07 0)
(-2.54526e-06 -1.37371e-07 0)
(-2.30322e-06 -1.21671e-07 0)
(-2.08917e-06 -1.12151e-07 0)
(-1.89407e-06 -1.06696e-07 0)
(-1.71048e-06 -1.02888e-07 0)
(-1.53514e-06 -1.01928e-07 0)
(-1.36886e-06 -1.01436e-07 0)
(-1.21317e-06 -9.95436e-08 0)
(-1.07e-06 -9.42952e-08 0)
(-9.41658e-07 -8.47966e-08 0)
(-8.34971e-07 -7.45686e-08 0)
(-7.50988e-07 -6.28094e-08 0)
(-6.95575e-07 -5.28969e-08 0)
(-6.69476e-07 -3.95213e-08 0)
(-6.71174e-07 -2.93403e-08 0)
(-7.0215e-07 -1.93203e-08 0)
(-7.54601e-07 -9.95963e-09 0)
(-8.24635e-07 3.23606e-10 0)
(-9.04518e-07 4.69167e-09 0)
(-9.84576e-07 5.62748e-09 0)
(-1.0568e-06 2.06557e-09 0)
(-1.11175e-06 -5.48812e-09 0)
(-1.14035e-06 -1.59923e-08 0)
(-1.13035e-06 -2.84002e-08 0)
(-1.07263e-06 -4.37416e-08 0)
(-9.59641e-07 -6.58334e-08 0)
(-7.81212e-07 -8.95266e-08 0)
(-5.31546e-07 -1.15767e-07 0)
(-2.04698e-07 -1.45562e-07 0)
(2.01277e-07 -1.76246e-07 0)
(6.89139e-07 -2.10223e-07 0)
(1.26301e-06 -2.45941e-07 0)
(1.92129e-06 -2.828e-07 0)
(2.6586e-06 -3.16898e-07 0)
(3.46959e-06 -3.48456e-07 0)
(4.34886e-06 -3.78786e-07 0)
(5.28773e-06 -4.04951e-07 0)
(6.27536e-06 -4.26461e-07 0)
(7.30084e-06 -4.41482e-07 0)
(8.35314e-06 -4.50206e-07 0)
(9.41894e-06 -4.52967e-07 0)
(1.04846e-05 -4.49104e-07 0)
(1.15371e-05 -4.38728e-07 0)
(1.25636e-05 -4.22349e-07 0)
(1.35513e-05 -4.00483e-07 0)
(1.44879e-05 -3.73714e-07 0)
(1.53636e-05 -3.41806e-07 0)
(1.61695e-05 -3.06652e-07 0)
(1.68968e-05 -2.68917e-07 0)
(1.75376e-05 -2.29667e-07 0)
(1.80866e-05 -1.88296e-07 0)
(1.85421e-05 -1.45362e-07 0)
(1.89022e-05 -1.02559e-07 0)
(1.91623e-05 -6.20868e-08 0)
(1.93253e-05 -2.03311e-08 0)
(1.93992e-05 1.71441e-08 0)
(1.93832e-05 5.72891e-08 0)
(1.92828e-05 9.19573e-08 0)
(1.91073e-05 1.24873e-07 0)
(1.88592e-05 1.56205e-07 0)
(1.85436e-05 1.83625e-07 0)
(1.81706e-05 2.09479e-07 0)
(1.77506e-05 2.32416e-07 0)
(1.72894e-05 2.51806e-07 0)
(1.67926e-05 2.68499e-07 0)
(1.62675e-05 2.82184e-07 0)
(1.57206e-05 2.90358e-07 0)
(1.51568e-05 2.92876e-07 0)
(1.45803e-05 2.93919e-07 0)
(1.39912e-05 2.90007e-07 0)
(1.33889e-05 2.8133e-07 0)
(1.27768e-05 2.69172e-07 0)
(1.21508e-05 2.61924e-07 0)
(1.15023e-05 2.68838e-07 0)
(1.08235e-05 2.8792e-07 0)
(1.01119e-05 3.10641e-07 0)
(9.37545e-06 3.30545e-07 0)
(8.62681e-06 3.43872e-07 0)
(7.87755e-06 3.48332e-07 0)
(7.13477e-06 3.39944e-07 0)
(6.40524e-06 3.23236e-07 0)
(5.70491e-06 3.02632e-07 0)
(5.03259e-06 2.77947e-07 0)
(4.36991e-06 2.60012e-07 0)
(3.71182e-06 2.60606e-07 0)
(3.05427e-06 2.8052e-07 0)
(2.38309e-06 3.08149e-07 0)
(1.68437e-06 3.30162e-07 0)
(9.63232e-07 3.36722e-07 0)
(2.879e-07 2.93576e-07 0)
(4.33883e-06 -2.93766e-06 0)
(4.38014e-06 4.37925e-06 0)
(3.65021e-06 1.67259e-06 0)
(1.70032e-06 1.90581e-07 0)
(9.79725e-07 -4.80291e-07 0)
(3.72838e-07 -6.21925e-07 0)
(3.9255e-08 -5.98713e-07 0)
(-1.80104e-07 -5.2522e-07 0)
(-3.23507e-07 -4.46093e-07 0)
(-4.13474e-07 -3.77198e-07 0)
(-4.79892e-07 -3.17526e-07 0)
(-5.38218e-07 -2.75019e-07 0)
(-5.97828e-07 -2.46317e-07 0)
(-6.62762e-07 -2.25925e-07 0)
(-7.36993e-07 -2.08595e-07 0)
(-8.22006e-07 -1.9293e-07 0)
(-9.1738e-07 -1.77007e-07 0)
(-1.02378e-06 -1.56354e-07 0)
(-1.13985e-06 -1.31105e-07 0)
(-1.26818e-06 -1.00943e-07 0)
(-1.41036e-06 -6.74847e-08 0)
(-1.56147e-06 -2.94593e-08 0)
(-1.71879e-06 7.718e-09 0)
(-1.88126e-06 4.55585e-08 0)
(-2.04708e-06 7.7295e-08 0)
(-2.21132e-06 1.04943e-07 0)
(-2.36556e-06 1.24886e-07 0)
(-2.51343e-06 1.34887e-07 0)
(-2.64844e-06 1.3381e-07 0)
(-2.757e-06 1.18759e-07 0)
(-2.83591e-06 8.8003e-08 0)
(-2.87648e-06 4.25254e-08 0)
(-2.87201e-06 -1.64569e-08 0)
(-2.81371e-06 -8.63688e-08 0)
(-2.69945e-06 -1.68931e-07 0)
(-2.51752e-06 -2.66127e-07 0)
(-2.25512e-06 -3.72847e-07 0)
(-1.91334e-06 -4.88253e-07 0)
(-1.48294e-06 -6.11755e-07 0)
(-9.63864e-07 -7.40829e-07 0)
(-3.53967e-07 -8.71926e-07 0)
(3.55012e-07 -1.00561e-06 0)
(1.1646e-06 -1.13674e-06 0)
(2.06881e-06 -1.26302e-06 0)
(3.05722e-06 -1.37933e-06 0)
(4.12881e-06 -1.4862e-06 0)
(5.27678e-06 -1.57902e-06 0)
(6.48799e-06 -1.65492e-06 0)
(7.74991e-06 -1.71089e-06 0)
(9.04809e-06 -1.74586e-06 0)
(1.03675e-05 -1.75954e-06 0)
(1.16917e-05 -1.75016e-06 0)
(1.30036e-05 -1.71809e-06 0)
(1.42865e-05 -1.66404e-06 0)
(1.55242e-05 -1.58915e-06 0)
(1.67013e-05 -1.49532e-06 0)
(1.78041e-05 -1.3836e-06 0)
(1.88207e-05 -1.25782e-06 0)
(1.97404e-05 -1.1206e-06 0)
(2.05539e-05 -9.74984e-07 0)
(2.12558e-05 -8.22296e-07 0)
(2.18425e-05 -6.64759e-07 0)
(2.23106e-05 -5.06287e-07 0)
(2.26606e-05 -3.50668e-07 0)
(2.28926e-05 -1.94935e-07 0)
(2.30193e-05 -4.67531e-08 0)
(2.30364e-05 9.6675e-08 0)
(2.29483e-05 2.29209e-07 0)
(2.2776e-05 3.5104e-07 0)
(2.25142e-05 4.60792e-07 0)
(2.21684e-05 5.58035e-07 0)
(2.17514e-05 6.44873e-07 0)
(2.12733e-05 7.19719e-07 0)
(2.07405e-05 7.82238e-07 0)
(2.01589e-05 8.35236e-07 0)
(1.95333e-05 8.79242e-07 0)
(1.88686e-05 9.13671e-07 0)
(1.81712e-05 9.39128e-07 0)
(1.74422e-05 9.6447e-07 0)
(1.66825e-05 9.86694e-07 0)
(1.5897e-05 1.00682e-06 0)
(1.50916e-05 1.02435e-06 0)
(1.42701e-05 1.04624e-06 0)
(1.34335e-05 1.07939e-06 0)
(1.25912e-05 1.12032e-06 0)
(1.17609e-05 1.15827e-06 0)
(1.0951e-05 1.18165e-06 0)
(1.01515e-05 1.1837e-06 0)
(9.34515e-06 1.17003e-06 0)
(8.52688e-06 1.1461e-06 0)
(7.70122e-06 1.1166e-06 0)
(6.8738e-06 1.09019e-06 0)
(6.04396e-06 1.06853e-06 0)
(5.21001e-06 1.06028e-06 0)
(4.38359e-06 1.07271e-06 0)
(3.57046e-06 1.10144e-06 0)
(2.7598e-06 1.13162e-06 0)
(1.93998e-06 1.1537e-06 0)
(1.11511e-06 1.15573e-06 0)
(3.16234e-07 9.6632e-07 0)
(9.94245e-07 -4.31513e-06 0)
(1.67347e-06 3.64891e-06 0)
(3.39636e-06 3.3951e-06 0)
(2.37847e-06 1.93616e-06 0)
(1.96311e-06 9.10006e-07 0)
(1.39353e-06 3.66456e-07 0)
(9.9897e-07 8.59734e-08 0)
(7.15939e-07 -4.82617e-08 0)
(5.04863e-07 -9.6223e-08 0)
(3.45556e-07 -1.04842e-07 0)
(2.10098e-07 -9.48828e-08 0)
(7.98301e-08 -7.63318e-08 0)
(-4.36053e-08 -5.7784e-08 0)
(-1.65476e-07 -3.85306e-08 0)
(-2.92884e-07 -1.79218e-08 0)
(-4.31734e-07 4.77806e-09 0)
(-5.81573e-07 2.94304e-08 0)
(-7.4386e-07 5.67795e-08 0)
(-9.19216e-07 8.58596e-08 0)
(-1.10425e-06 1.15025e-07 0)
(-1.29753e-06 1.46476e-07 0)
(-1.49603e-06 1.7974e-07 0)
(-1.69952e-06 2.12493e-07 0)
(-1.90403e-06 2.4233e-07 0)
(-2.10449e-06 2.66755e-07 0)
(-2.29883e-06 2.84231e-07 0)
(-2.48241e-06 2.90628e-07 0)
(-2.65106e-06 2.80598e-07 0)
(-2.80097e-06 2.59556e-07 0)
(-2.92675e-06 2.21257e-07 0)
(-3.02088e-06 1.64659e-07 0)
(-3.07511e-06 8.57387e-08 0)
(-3.08282e-06 -1.49769e-08 0)
(-3.0373e-06 -1.36219e-07 0)
(-2.93655e-06 -2.80391e-07 0)
(-2.76822e-06 -4.40839e-07 0)
(-2.51969e-06 -6.22342e-07 0)
(-2.19019e-06 -8.21985e-07 0)
(-1.7718e-06 -1.03714e-06 0)
(-1.25934e-06 -1.27106e-06 0)
(-6.52122e-07 -1.50304e-06 0)
(5.69812e-08 -1.73579e-06 0)
(8.70426e-07 -1.96656e-06 0)
(1.78356e-06 -2.19429e-06 0)
(2.78874e-06 -2.40636e-06 0)
(3.88087e-06 -2.59537e-06 0)
(5.05468e-06 -2.75911e-06 0)
(6.29655e-06 -2.89237e-06 0)
(7.59246e-06 -2.99119e-06 0)
(8.92694e-06 -3.05221e-06 0)
(1.02846e-05 -3.07456e-06 0)
(1.16479e-05 -3.05529e-06 0)
(1.29983e-05 -2.99585e-06 0)
(1.43183e-05 -2.89753e-06 0)
(1.55906e-05 -2.7629e-06 0)
(1.67995e-05 -2.59538e-06 0)
(1.79305e-05 -2.39855e-06 0)
(1.8971e-05 -2.17775e-06 0)
(1.99106e-05 -1.93887e-06 0)
(2.07409e-05 -1.68593e-06 0)
(2.1457e-05 -1.42248e-06 0)
(2.2055e-05 -1.15339e-06 0)
(2.25317e-05 -8.84205e-07 0)
(2.28898e-05 -6.14898e-07 0)
(2.31293e-05 -3.48688e-07 0)
(2.32591e-05 -8.78436e-08 0)
(2.32795e-05 1.55408e-07 0)
(2.31946e-05 3.91899e-07 0)
(2.30203e-05 6.09923e-07 0)
(2.27571e-05 8.05262e-07 0)
(2.24108e-05 9.83929e-07 0)
(2.19898e-05 1.14867e-06 0)
(2.15026e-05 1.29404e-06 0)
(2.09572e-05 1.41942e-06 0)
(2.03585e-05 1.52466e-06 0)
(1.97101e-05 1.60877e-06 0)
(1.90178e-05 1.67173e-06 0)
(1.82934e-05 1.71641e-06 0)
(1.75392e-05 1.74867e-06 0)
(1.67543e-05 1.77314e-06 0)
(1.59473e-05 1.79111e-06 0)
(1.51298e-05 1.80637e-06 0)
(1.43083e-05 1.82824e-06 0)
(1.34798e-05 1.86263e-06 0)
(1.26464e-05 1.90788e-06 0)
(1.18171e-05 1.9525e-06 0)
(1.09992e-05 1.97731e-06 0)
(1.01944e-05 1.97921e-06 0)
(9.39311e-06 1.96854e-06 0)
(8.57638e-06 1.95121e-06 0)
(7.74186e-06 1.93044e-06 0)
(6.9026e-06 1.90925e-06 0)
(6.06378e-06 1.88817e-06 0)
(5.22815e-06 1.87752e-06 0)
(4.40417e-06 1.88248e-06 0)
(3.58951e-06 1.89889e-06 0)
(2.77358e-06 1.92071e-06 0)
(1.95264e-06 1.94297e-06 0)
(1.12782e-06 1.94528e-06 0)
(3.24799e-07 1.66339e-06 0)
(-1.02985e-07 -5.92185e-06 0)
(1.91455e-07 1.69855e-06 0)
(1.93743e-06 2.37673e-06 0)
(1.62885e-06 1.62714e-06 0)
(1.6317e-06 9.00122e-07 0)
(1.33007e-06 4.4912e-07 0)
(1.07568e-06 2.058e-07 0)
(8.55251e-07 7.97451e-08 0)
(6.6695e-07 2.21506e-08 0)
(5.05315e-07 1.84141e-09 0)
(3.63456e-07 -6.22147e-10 0)
(2.28559e-07 1.40374e-08 0)
(9.5179e-08 3.87819e-08 0)
(-3.63004e-08 6.65149e-08 0)
(-1.73384e-07 9.87251e-08 0)
(-3.20609e-07 1.32534e-07 0)
(-4.78611e-07 1.69652e-07 0)
(-6.48895e-07 2.0832e-07 0)
(-8.3159e-07 2.4962e-07 0)
(-1.02459e-06 2.92111e-07 0)
(-1.22655e-06 3.35138e-07 0)
(-1.43528e-06 3.75549e-07 0)
(-1.64838e-06 4.12075e-07 0)
(-1.86356e-06 4.44781e-07 0)
(-2.07758e-06 4.68207e-07 0)
(-2.28711e-06 4.79896e-07 0)
(-2.48777e-06 4.7695e-07 0)
(-2.67451e-06 4.55654e-07 0)
(-2.84302e-06 4.1408e-07 0)
(-2.98766e-06 3.50108e-07 0)
(-3.10455e-06 2.6327e-07 0)
(-3.18484e-06 1.44382e-07 0)
(-3.21779e-06 -3.65775e-09 0)
(-3.19844e-06 -1.83126e-07 0)
(-3.11989e-06 -3.95517e-07 0)
(-2.97313e-06 -6.26856e-07 0)
(-2.74908e-06 -8.89154e-07 0)
(-2.44126e-06 -1.17843e-06 0)
(-2.04627e-06 -1.49128e-06 0)
(-1.5456e-06 -1.82413e-06 0)
(-9.36105e-07 -2.16416e-06 0)
(-2.27186e-07 -2.5036e-06 0)
(5.867e-07 -2.84096e-06 0)
(1.50964e-06 -3.1722e-06 0)
(2.53778e-06 -3.48054e-06 0)
(3.65967e-06 -3.75594e-06 0)
(4.86634e-06 -3.99475e-06 0)
(6.14627e-06 -4.18991e-06 0)
(7.48499e-06 -4.3355e-06 0)
(8.86484e-06 -4.4269e-06 0)
(1.02702e-05 -4.4612e-06 0)
(1.16822e-05 -4.43695e-06 0)
(1.30794e-05 -4.35453e-06 0)
(1.44439e-05 -4.21594e-06 0)
(1.57571e-05 -4.02481e-06 0)
(1.70027e-05 -3.78585e-06 0)
(1.81652e-05 -3.50434e-06 0)
(1.92303e-05 -3.1873e-06 0)
(2.01888e-05 -2.84247e-06 0)
(2.10341e-05 -2.47595e-06 0)
(2.17598e-05 -2.0942e-06 0)
(2.23609e-05 -1.70502e-06 0)
(2.28389e-05 -1.31446e-06 0)
(2.31969e-05 -9.26048e-07 0)
(2.34329e-05 -5.47982e-07 0)
(2.35504e-05 -1.74938e-07 0)
(2.35582e-05 1.73594e-07 0)
(2.34608e-05 5.08389e-07 0)
(2.32637e-05 8.19421e-07 0)
(2.29786e-05 1.09862e-06 0)
(2.26166e-05 1.35314e-06 0)
(2.21783e-05 1.58698e-06 0)
(2.16693e-05 1.79213e-06 0)
(2.11005e-05 1.97178e-06 0)
(2.04768e-05 2.1255e-06 0)
(1.98029e-05 2.25426e-06 0)
(1.9087e-05 2.3575e-06 0)
(1.83423e-05 2.4386e-06 0)
(1.75734e-05 2.50058e-06 0)
(1.67792e-05 2.55169e-06 0)
(1.59658e-05 2.59223e-06 0)
(1.51483e-05 2.62725e-06 0)
(1.43337e-05 2.65763e-06 0)
(1.35145e-05 2.69207e-06 0)
(1.26853e-05 2.73433e-06 0)
(1.18462e-05 2.77561e-06 0)
(1.10109e-05 2.80096e-06 0)
(1.01935e-05 2.81046e-06 0)
(9.38104e-06 2.80474e-06 0)
(8.55813e-06 2.78917e-06 0)
(7.7252e-06 2.77162e-06 0)
(6.88615e-06 2.75336e-06 0)
(6.05024e-06 2.73223e-06 0)
(5.22412e-06 2.71458e-06 0)
(4.40865e-06 2.70785e-06 0)
(3.60047e-06 2.71184e-06 0)
(2.78898e-06 2.72483e-06 0)
(1.9669e-06 2.74038e-06 0)
(1.14888e-06 2.74093e-06 0)
(3.44721e-07 2.39694e-06 0)
(-3.4392e-07 -5.21641e-06 0)
(-4.79431e-07 9.77465e-07 0)
(9.1127e-07 1.96092e-06 0)
(9.01853e-07 1.62955e-06 0)
(1.11771e-06 1.11556e-06 0)
(1.00432e-06 7.27984e-07 0)
(8.83038e-07 4.77047e-07 0)
(7.46161e-07 3.17791e-07 0)
(6.11764e-07 2.23618e-07 0)
(4.85719e-07 1.75477e-07 0)
(3.68278e-07 1.57331e-07 0)
(2.51414e-07 1.59745e-07 0)
(1.2906e-07 1.79908e-07 0)
(3.79665e-09 2.09122e-07 0)
(-1.27841e-07 2.45503e-07 0)
(-2.72013e-07 2.8804e-07 0)
(-4.27355e-07 3.34794e-07 0)
(-5.95975e-07 3.84533e-07 0)
(-7.78049e-07 4.36498e-07 0)
(-9.71688e-07 4.8912e-07 0)
(-1.17688e-06 5.41485e-07 0)
(-1.39092e-06 5.90402e-07 0)
(-1.61009e-06 6.3376e-07 0)
(-1.83438e-06 6.68814e-07 0)
(-2.06114e-06 6.91689e-07 0)
(-2.28575e-06 6.99106e-07 0)
(-2.50487e-06 6.87973e-07 0)
(-2.71352e-06 6.54268e-07 0)
(-2.9065e-06 5.94331e-07 0)
(-3.07723e-06 5.03971e-07 0)
(-3.22551e-06 3.79813e-07 0)
(-3.33996e-06 2.23205e-07 0)
(-3.40726e-06 2.79634e-08 0)
(-3.42526e-06 -2.08813e-07 0)
(-3.37582e-06 -4.85029e-07 0)
(-3.25715e-06 -7.96575e-07 0)
(-3.06668e-06 -1.14542e-06 0)
(-2.78817e-06 -1.52816e-06 0)
(-2.41409e-06 -1.94119e-06 0)
(-1.9298e-06 -2.37222e-06 0)
(-1.3303e-06 -2.82261e-06 0)
(-6.19781e-07 -3.27835e-06 0)
(2.00462e-07 -3.72854e-06 0)
(1.1411e-06 -4.16277e-06 0)
(2.20064e-06 -4.57107e-06 0)
(3.3608e-06 -4.94011e-06 0)
(4.61335e-06 -5.26107e-06 0)
(5.94694e-06 -5.525e-06 0)
(7.34508e-06 -5.72374e-06 0)
(8.78933e-06 -5.85158e-06 0)
(1.02611e-05 -5.90327e-06 0)
(1.17396e-05 -5.87862e-06 0)
(1.32028e-05 -5.77671e-06 0)
(1.46301e-05 -5.59986e-06 0)
(1.60014e-05 -5.35266e-06 0)
(1.72993e-05 -5.04104e-06 0)
(1.85072e-05 -4.67245e-06 0)
(1.961e-05 -4.25534e-06 0)
(2.05984e-05 -3.79879e-06 0)
(2.14652e-05 -3.31221e-06 0)
(2.22038e-05 -2.8057e-06 0)
(2.28109e-05 -2.28876e-06 0)
(2.32876e-05 -1.76849e-06 0)
(2.36345e-05 -1.25494e-06 0)
(2.38604e-05 -7.57684e-07 0)
(2.39629e-05 -2.76503e-07 0)
(2.39476e-05 1.79611e-07 0)
(2.38281e-05 6.08622e-07 0)
(2.36015e-05 1.0072e-06 0)
(2.32849e-05 1.37256e-06 0)
(2.28964e-05 1.70783e-06 0)
(2.24286e-05 2.00587e-06 0)
(2.18892e-05 2.27039e-06 0)
(2.12935e-05 2.50128e-06 0)
(2.06443e-05 2.70424e-06 0)
(1.99448e-05 2.88339e-06 0)
(1.92033e-05 3.03703e-06 0)
(1.84352e-05 3.1641e-06 0)
(1.76482e-05 3.2679e-06 0)
(1.68392e-05 3.35378e-06 0)
(1.60141e-05 3.42464e-06 0)
(1.5185e-05 3.4782e-06 0)
(1.43625e-05 3.51141e-06 0)
(1.35467e-05 3.5368e-06 0)
(1.27221e-05 3.56641e-06 0)
(1.18791e-05 3.60036e-06 0)
(1.10328e-05 3.632e-06 0)
(1.01999e-05 3.65023e-06 0)
(9.37523e-06 3.64919e-06 0)
(8.54707e-06 3.63938e-06 0)
(7.70918e-06 3.62346e-06 0)
(6.86503e-06 3.60158e-06 0)
(6.02543e-06 3.57669e-06 0)
(5.2031e-06 3.55175e-06 0)
(4.4001e-06 3.53514e-06 0)
(3.60451e-06 3.53026e-06 0)
(2.79873e-06 3.53424e-06 0)
(1.9796e-06 3.54354e-06 0)
(1.17184e-06 3.54899e-06 0)
(3.62835e-07 3.15397e-06 0)
(-3.77739e-07 -4.65572e-06 0)
(-6.21057e-07 3.70186e-07 0)
(3.67766e-07 1.39091e-06 0)
(4.50872e-07 1.32752e-06 0)
(7.30133e-07 1.00173e-06 0)
(7.26215e-07 7.23623e-07 0)
(6.97566e-07 5.24805e-07 0)
(6.29239e-07 3.90672e-07 0)
(5.48395e-07 3.08474e-07 0)
(4.60029e-07 2.68152e-07 0)
(3.6665e-07 2.5495e-07 0)
(2.6848e-07 2.63352e-07 0)
(1.60461e-07 2.87686e-07 0)
(4.37923e-08 3.27609e-07 0)
(-8.12658e-08 3.7281e-07 0)
(-2.19383e-07 4.27599e-07 0)
(-3.71469e-07 4.87278e-07 0)
(-5.37848e-07 5.50075e-07 0)
(-7.18975e-07 6.16153e-07 0)
(-9.12876e-07 6.82767e-07 0)
(-1.1198e-06 7.48087e-07 0)
(-1.3387e-06 8.10627e-07 0)
(-1.56672e-06 8.65636e-07 0)
(-1.80328e-06 9.08034e-07 0)
(-2.04567e-06 9.35327e-07 0)
(-2.28976e-06 9.43049e-07 0)
(-2.53193e-06 9.26936e-07 0)
(-2.76769e-06 8.82898e-07 0)
(-2.99293e-06 8.05903e-07 0)
(-3.20177e-06 6.91397e-07 0)
(-3.38482e-06 5.33932e-07 0)
(-3.53604e-06 3.40225e-07 0)
(-3.64896e-06 9.61835e-08 0)
(-3.71038e-06 -1.9991e-07 0)
(-3.70639e-06 -5.40877e-07 0)
(-3.63208e-06 -9.36703e-07 0)
(-3.47911e-06 -1.37753e-06 0)
(-3.23542e-06 -1.86153e-06 0)
(-2.88868e-06 -2.37734e-06 0)
(-2.42541e-06 -2.92054e-06 0)
(-1.84072e-06 -3.48535e-06 0)
(-1.13173e-06 -4.06304e-06 0)
(-2.96541e-07 -4.63189e-06 0)
(6.68004e-07 -5.17729e-06 0)
(1.76107e-06 -5.69627e-06 0)
(2.97006e-06 -6.16614e-06 0)
(4.28163e-06 -6.57759e-06 0)
(5.68358e-06 -6.91884e-06 0)
(7.15818e-06 -7.17803e-06 0)
(8.68485e-06 -7.34753e-06 0)
(1.02424e-05 -7.42121e-06 0)
(1.18078e-05 -7.39683e-06 0)
(1.3357e-05 -7.27397e-06 0)
(1.48665e-05 -7.05556e-06 0)
(1.63142e-05 -6.74678e-06 0)
(1.76809e-05 -6.35463e-06 0)
(1.89486e-05 -5.88934e-06 0)
(2.01014e-05 -5.36152e-06 0)
(2.11292e-05 -4.78264e-06 0)
(2.20242e-05 -4.16583e-06 0)
(2.27802e-05 -3.5243e-06 0)
(2.3395e-05 -2.86995e-06 0)
(2.38697e-05 -2.21008e-06 0)
(2.42048e-05 -1.5639e-06 0)
(2.44087e-05 -9.35204e-07 0)
(2.44853e-05 -3.38584e-07 0)
(2.44412e-05 2.2945e-07 0)
(2.42867e-05 7.59356e-07 0)
(2.40264e-05 1.25092e-06 0)
(2.36784e-05 1.70618e-06 0)
(2.32495e-05 2.11394e-06 0)
(2.27408e-05 2.47567e-06 0)
(2.21649e-05 2.80141e-06 0)
(2.15347e-05 3.08251e-06 0)
(2.08592e-05 3.32971e-06 0)
(2.01358e-05 3.55102e-06 0)
(1.93677e-05 3.74651e-06 0)
(1.85728e-05 3.91197e-06 0)
(1.77622e-05 4.04901e-06 0)
(1.69348e-05 4.16585e-06 0)
(1.60889e-05 4.26624e-06 0)
(1.52336e-05 4.33998e-06 0)
(1.43908e-05 4.38394e-06 0)
(1.35682e-05 4.4064e-06 0)
(1.27479e-05 4.4225e-06 0)
(1.19113e-05 4.44448e-06 0)
(1.10608e-05 4.47278e-06 0)
(1.02111e-05 4.48929e-06 0)
(9.37074e-06 4.4879e-06 0)
(8.53293e-06 4.47412e-06 0)
(7.68778e-06 4.45469e-06 0)
(6.83957e-06 4.43212e-06 0)
(6.00046e-06 4.40987e-06 0)
(5.18259e-06 4.38964e-06 0)
(4.38716e-06 4.37253e-06 0)
(3.59922e-06 4.35973e-06 0)
(2.79961e-06 4.3502e-06 0)
(1.98502e-06 4.35051e-06 0)
(1.18203e-06 4.35535e-06 0)
(3.67705e-07 3.92112e-06 0)
(-3.15516e-07 -4.06503e-06 0)
(-5.97877e-07 3.62579e-08 0)
(8.7251e-08 9.96004e-07 0)
(2.07555e-07 1.07263e-06 0)
(4.79165e-07 8.79974e-07 0)
(5.27393e-07 6.94506e-07 0)
(5.53093e-07 5.50034e-07 0)
(5.32662e-07 4.47583e-07 0)
(4.91739e-07 3.83669e-07 0)
(4.34432e-07 3.5117e-07 0)
(3.65504e-07 3.45352e-07 0)
(2.86114e-07 3.59632e-07 0)
(1.95257e-07 3.9145e-07 0)
(9.06988e-08 4.38313e-07 0)
(-2.6275e-08 4.9758e-07 0)
(-1.56124e-07 5.64554e-07 0)
(-3.03619e-07 6.38261e-07 0)
(-4.66007e-07 7.16516e-07 0)
(-6.44437e-07 7.98992e-07 0)
(-8.3902e-07 8.82463e-07 0)
(-1.04848e-06 9.64036e-07 0)
(-1.27304e-06 1.04239e-06 0)
(-1.51256e-06 1.11149e-06 0)
(-1.76477e-06 1.16464e-06 0)
(-2.0264e-06 1.19958e-06 0)
(-2.29459e-06 1.21091e-06 0)
(-2.56561e-06 1.19342e-06 0)
(-2.83525e-06 1.14202e-06 0)
(-3.09877e-06 1.05118e-06 0)
(-3.35e-06 9.16443e-07 0)
(-3.5775e-06 7.33041e-07 0)
(-3.77851e-06 4.97227e-07 0)
(-3.94812e-06 2.01854e-07 0)
(-4.06295e-06 -1.51562e-07 0)
(-4.11309e-06 -5.65663e-07 0)
(-4.09414e-06 -1.04329e-06 0)
(-3.99168e-06 -1.57706e-06 0)
(-3.78805e-06 -2.16369e-06 0)
(-3.47302e-06 -2.7925e-06 0)
(-3.0376e-06 -3.45669e-06 0)
(-2.47252e-06 -4.14648e-06 0)
(-1.76604e-06 -4.84837e-06 0)
(-9.1353e-07 -5.54525e-06 0)
(7.68883e-08 -6.21859e-06 0)
(1.21189e-06 -6.85725e-06 0)
(2.47961e-06 -7.44193e-06 0)
(3.86082e-06 -7.95668e-06 0)
(5.34671e-06 -8.38589e-06 0)
(6.91668e-06 -8.71431e-06 0)
(8.54649e-06 -8.93166e-06 0)
(1.02121e-05 -9.03012e-06 0)
(1.18872e-05 -9.00585e-06 0)
(1.35445e-05 -8.85822e-06 0)
(1.51577e-05 -8.59084e-06 0)
(1.67027e-05 -8.20994e-06 0)
(1.81571e-05 -7.7247e-06 0)
(1.95005e-05 -7.14847e-06 0)
(2.07168e-05 -6.49488e-06 0)
(2.17941e-05 -5.77861e-06 0)
(2.27234e-05 -5.01654e-06 0)
(2.34995e-05 -4.22481e-06 0)
(2.41249e-05 -3.41807e-06 0)
(2.45934e-05 -2.61264e-06 0)
(2.49092e-05 -1.82267e-06 0)
(2.50856e-05 -1.05666e-06 0)
(2.51274e-05 -3.28323e-07 0)
(2.50454e-05 3.5982e-07 0)
(2.48495e-05 9.99313e-07 0)
(2.45484e-05 1.59179e-06 0)
(2.4148e-05 2.13314e-06 0)
(2.36659e-05 2.61067e-06 0)
(2.31162e-05 3.03964e-06 0)
(2.24961e-05 3.42091e-06 0)
(2.18219e-05 3.75155e-06 0)
(2.11128e-05 4.03592e-06 0)
(2.03616e-05 4.28569e-06 0)
(1.95641e-05 4.50776e-06 0)
(1.87375e-05 4.6983e-06 0)
(1.79018e-05 4.855e-06 0)
(1.70561e-05 4.98924e-06 0)
(1.61879e-05 5.10499e-06 0)
(1.53024e-05 5.20053e-06 0)
(1.44286e-05 5.26502e-06 0)
(1.3585e-05 5.2952e-06 0)
(1.276e-05 5.30497e-06 0)
(1.19293e-05 5.31277e-06 0)
(1.10777e-05 5.32371e-06 0)
(1.02151e-05 5.32587e-06 0)
(9.36022e-06 5.31561e-06 0)
(8.51403e-06 5.29403e-06 0)
(7.6673e-06 5.27059e-06 0)
(6.82027e-06 5.25142e-06 0)
(5.98297e-06 5.23647e-06 0)
(5.16579e-06 5.22273e-06 0)
(4.37018e-06 5.20585e-06 0)
(3.58176e-06 5.18485e-06 0)
(2.78577e-06 5.16124e-06 0)
(1.97635e-06 5.14765e-06 0)
(1.17851e-06 5.14924e-06 0)
(3.60503e-07 4.67948e-06 0)
(-2.47302e-07 -3.57268e-06 0)
(-5.24355e-07 -1.83588e-07 0)
(-4.71042e-08 7.12583e-07 0)
(8.13918e-08 8.51731e-07 0)
(3.19936e-07 7.42642e-07 0)
(3.93268e-07 6.2572e-07 0)
(4.50643e-07 5.29139e-07 0)
(4.63127e-07 4.59625e-07 0)
(4.52238e-07 4.18104e-07 0)
(4.21972e-07 4.01563e-07 0)
(3.75356e-07 4.09232e-07 0)
(3.14841e-07 4.35288e-07 0)
(2.39522e-07 4.79112e-07 0)
(1.50398e-07 5.36732e-07 0)
(4.54225e-08 6.09235e-07 0)
(-7.83084e-08 6.91975e-07 0)
(-2.19157e-07 7.8308e-07 0)
(-3.7682e-07 8.79441e-07 0)
(-5.52792e-07 9.80991e-07 0)
(-7.47672e-07 1.08385e-06 0)
(-9.59809e-07 1.18415e-06 0)
(-1.1913e-06 1.27813e-06 0)
(-1.44466e-06 1.36263e-06 0)
(-1.71552e-06 1.4349e-06 0)
(-1.99987e-06 1.4832e-06 0)
(-2.29653e-06 1.50298e-06 0)
(-2.60155e-06 1.48918e-06 0)
(-2.91076e-06 1.4358e-06 0)
(-3.21941e-06 1.33651e-06 0)
(-3.52083e-06 1.18489e-06 0)
(-3.80498e-06 9.75004e-07 0)
(-4.06818e-06 6.9739e-07 0)
(-4.29866e-06 3.57331e-07 0)
(-4.47872e-06 -5.20559e-08 0)
(-4.59881e-06 -5.38024e-07 0)
(-4.64403e-06 -1.09721e-06 0)
(-4.59991e-06 -1.72612e-06 0)
(-4.45112e-06 -2.41727e-06 0)
(-4.18178e-06 -3.16847e-06 0)
(-3.77934e-06 -3.96228e-06 0)
(-3.23225e-06 -4.7891e-06 0)
(-2.53035e-06 -5.62914e-06 0)
(-1.66664e-06 -6.46996e-06 0)
(-6.4394e-07 -7.28922e-06 0)
(5.37721e-07 -8.06577e-06 0)
(1.87067e-06 -8.7858e-06 0)
(3.33776e-06 -9.42023e-06 0)
(4.92613e-06 -9.94945e-06 0)
(6.61276e-06 -1.03582e-05 0)
(8.36946e-06 -1.06306e-05 0)
(1.01687e-05 -1.07566e-05 0)
(1.19802e-05 -1.07309e-05 0)
(1.37726e-05 -1.05526e-05 0)
(1.55153e-05 -1.02259e-05 0)
(1.71809e-05 -9.75946e-06 0)
(1.87429e-05 -9.16545e-06 0)
(2.01788e-05 -8.46099e-06 0)
(2.14716e-05 -7.66364e-06 0)
(2.26078e-05 -6.79302e-06 0)
(2.35782e-05 -5.86955e-06 0)
(2.43787e-05 -4.91195e-06 0)
(2.50072e-05 -3.94077e-06 0)
(2.54652e-05 -2.97835e-06 0)
(2.57609e-05 -2.03287e-06 0)
(2.59031e-05 -1.12e-06 0)
(2.59018e-05 -2.49624e-07 0)
(2.57689e-05 5.66491e-07 0)
(2.55188e-05 1.32253e-06 0)
(2.51604e-05 2.01712e-06 0)
(2.46975e-05 2.64364e-06 0)
(2.41562e-05 3.20539e-06 0)
(2.35512e-05 3.70422e-06 0)
(2.28769e-05 4.14098e-06 0)
(2.21497e-05 4.51878e-06 0)
(2.13933e-05 4.83415e-06 0)
(2.06076e-05 5.10104e-06 0)
(1.97801e-05 5.33531e-06 0)
(1.89198e-05 5.53679e-06 0)
(1.80529e-05 5.70086e-06 0)
(1.71845e-05 5.83285e-06 0)
(1.62999e-05 5.94959e-06 0)
(1.53934e-05 6.05733e-06 0)
(1.44853e-05 6.14076e-06 0)
(1.36081e-05 6.18599e-06 0)
(1.27654e-05 6.19803e-06 0)
(1.193e-05 6.19399e-06 0)
(1.10739e-05 6.18521e-06 0)
(1.02031e-05 6.17186e-06 0)
(9.339e-06 6.14937e-06 0)
(8.48802e-06 6.11808e-06 0)
(7.64524e-06 6.08651e-06 0)
(6.80547e-06 6.06372e-06 0)
(5.97177e-06 6.05021e-06 0)
(5.15195e-06 6.03943e-06 0)
(4.34924e-06 6.02238e-06 0)
(3.55411e-06 5.99522e-06 0)
(2.75743e-06 5.96236e-06 0)
(1.95118e-06 5.93763e-06 0)
(1.15686e-06 5.93715e-06 0)
(3.40097e-07 5.41946e-06 0)
(-1.97376e-07 -3.16814e-06 0)
(-4.45186e-07 -3.27571e-07 0)
(-9.50829e-08 5.01114e-07 0)
(2.37367e-08 6.62983e-07 0)
(2.25736e-07 6.07867e-07 0)
(3.11058e-07 5.44431e-07 0)
(3.86745e-07 4.87716e-07 0)
(4.21626e-07 4.48333e-07 0)
(4.33713e-07 4.29766e-07 0)
(4.25622e-07 4.31805e-07 0)
(3.99304e-07 4.54256e-07 0)
(3.56056e-07 4.94991e-07 0)
(2.96799e-07 5.5146e-07 0)
(2.21043e-07 6.25054e-07 0)
(1.29322e-07 7.10721e-07 0)
(1.8105e-08 8.10026e-07 0)
(-1.158e-07 9.20492e-07 0)
(-2.67784e-07 1.03667e-06 0)
(-4.39768e-07 1.16106e-06 0)
(-6.3567e-07 1.28747e-06 0)
(-8.54103e-07 1.41099e-06 0)
(-1.09458e-06 1.52573e-06 0)
(-1.35595e-06 1.62832e-06 0)
(-1.6445e-06 1.71581e-06 0)
(-1.95876e-06 1.784e-06 0)
(-2.28918e-06 1.82298e-06 0)
(-2.63347e-06 1.81967e-06 0)
(-2.98869e-06 1.77091e-06 0)
(-3.35051e-06 1.66957e-06 0)
(-3.71236e-06 1.50699e-06 0)
(-4.06586e-06 1.2763e-06 0)
(-4.39707e-06 9.68851e-07 0)
(-4.69846e-06 5.85309e-07 0)
(-4.95911e-06 1.1693e-07 0)
(-5.15895e-06 -4.38033e-07 0)
(-5.28281e-06 -1.07922e-06 0)
(-5.31216e-06 -1.8052e-06 0)
(-5.23066e-06 -2.60806e-06 0)
(-5.01816e-06 -3.48957e-06 0)
(-4.6582e-06 -4.42181e-06 0)
(-4.13921e-06 -5.40034e-06 0)
(-3.44672e-06 -6.40399e-06 0)
(-2.5735e-06 -7.41106e-06 0)
(-1.51886e-06 -8.40006e-06 0)
(-2.84699e-07 -9.34293e-06 0)
(1.12515e-06 -1.02176e-05 0)
(2.69725e-06 -1.09926e-05 0)
(4.40893e-06 -1.16403e-05 0)
(6.23593e-06 -1.21426e-05 0)
(8.14858e-06 -1.24785e-05 0)
(1.01123e-05 -1.26355e-05 0)
(1.20917e-05 -1.26064e-05 0)
(1.405e-05 -1.23904e-05 0)
(1.59514e-05 -1.19931e-05 0)
(1.77638e-05 -1.14262e-05 0)
(1.9456e-05 -1.07059e-05 0)
(2.10027e-05 -9.85428e-06 0)
(2.23851e-05 -8.89377e-06 0)
(2.35883e-05 -7.84962e-06 0)
(2.46046e-05 -6.74685e-06 0)
(2.54284e-05 -5.60969e-06 0)
(2.60587e-05 -4.46169e-06 0)
(2.65015e-05 -3.32414e-06 0)
(2.67677e-05 -2.21353e-06 0)
(2.68688e-05 -1.14514e-06 0)
(2.68138e-05 -1.31092e-07 0)
(2.66177e-05 8.162e-07 0)
(2.63004e-05 1.693e-06 0)
(2.58697e-05 2.49353e-06 0)
(2.53366e-05 3.21715e-06 0)
(2.47267e-05 3.86312e-06 0)
(2.40519e-05 4.43202e-06 0)
(2.33107e-05 4.93042e-06 0)
(2.25151e-05 5.35966e-06 0)
(2.1695e-05 5.71132e-06 0)
(2.08626e-05 5.99674e-06 0)
(1.99997e-05 6.23946e-06 0)
(1.91029e-05 6.44276e-06 0)
(1.81977e-05 6.60246e-06 0)
(1.73047e-05 6.72398e-06 0)
(1.64122e-05 6.826e-06 0)
(1.54934e-05 6.92472e-06 0)
(1.45571e-05 7.01138e-06 0)
(1.36422e-05 7.06834e-06 0)
(1.27681e-05 7.08671e-06 0)
(1.19165e-05 7.07623e-06 0)
(1.10556e-05 7.05362e-06 0)
(1.01794e-05 7.03016e-06 0)
(9.30654e-06 6.99882e-06 0)
(8.45124e-06 6.95786e-06 0)
(7.613e-06 6.91507e-06 0)
(6.78398e-06 6.87992e-06 0)
(5.95866e-06 6.85727e-06 0)
(5.13791e-06 6.84074e-06 0)
(4.32589e-06 6.82103e-06 0)
(3.52112e-06 6.79134e-06 0)
(2.7216e-06 6.75576e-06 0)
(1.91535e-06 6.72569e-06 0)
(1.12378e-06 6.72744e-06 0)
(3.16271e-07 6.13789e-06 0)
(-1.61245e-07 -2.83319e-06 0)
(-3.76111e-07 -4.18156e-07 0)
(-1.037e-07 3.40453e-07 0)
(3.3327e-09 5.00516e-07 0)
(1.77624e-07 4.81375e-07 0)
(2.70622e-07 4.55534e-07 0)
(3.54289e-07 4.30007e-07 0)
(4.0514e-07 4.17575e-07 0)
(4.3571e-07 4.2125e-07 0)
(4.46489e-07 4.42135e-07 0)
(4.38589e-07 4.80635e-07 0)
(4.12079e-07 5.36799e-07 0)
(3.69602e-07 6.09629e-07 0)
(3.09677e-07 6.99369e-07 0)
(2.30511e-07 8.04606e-07 0)
(1.31753e-07 9.22728e-07 0)
(7.88175e-09 1.05441e-06 0)
(-1.35857e-07 1.19295e-06 0)
(-3.01647e-07 1.34186e-06 0)
(-4.97468e-07 1.49369e-06 0)
(-7.21376e-07 1.64439e-06 0)
(-9.73918e-07 1.78804e-06 0)
(-1.25465e-06 1.91801e-06 0)
(-1.56007e-06 2.02725e-06 0)
(-1.89306e-06 2.11414e-06 0)
(-2.26135e-06 2.17058e-06 0)
(-2.65421e-06 2.19014e-06 0)
(-3.06153e-06 2.15423e-06 0)
(-3.48406e-06 2.05842e-06 0)
(-3.91485e-06 1.8939e-06 0)
(-4.34386e-06 1.65175e-06 0)
(-4.75995e-06 1.32436e-06 0)
(-5.15141e-06 9.00969e-07 0)
(-5.50287e-06 3.7907e-07 0)
(-5.79572e-06 -2.43093e-07 0)
(-6.01182e-06 -9.67975e-07 0)
(-6.12921e-06 -1.79494e-06 0)
(-6.13579e-06 -2.71908e-06 0)
(-5.99572e-06 -3.73336e-06 0)
(-5.69012e-06 -4.82226e-06 0)
(-5.21425e-06 -5.97621e-06 0)
(-4.54083e-06 -7.16845e-06 0)
(-3.66252e-06 -8.37163e-06 0)
(-2.57571e-06 -9.55881e-06 0)
(-1.27982e-06 -1.06986e-05 0)
(2.21e-07 -1.17558e-05 0)
(1.91516e-06 -1.26978e-05 0)
(3.77632e-06 -1.34887e-05 0)
(5.7749e-06 -1.41023e-05 0)
(7.87707e-06 -1.45132e-05 0)
(1.00414e-05 -1.47059e-05 0)
(1.22259e-05 -1.46719e-05 0)
(1.43864e-05 -1.44108e-05 0)
(1.64801e-05 -1.39307e-05 0)
(1.84687e-05 -1.32469e-05 0)
(2.03153e-05 -1.23816e-05 0)
(2.19913e-05 -1.13609e-05 0)
(2.34765e-05 -1.02145e-05 0)
(2.47549e-05 -8.97376e-06 0)
(2.58184e-05 -7.66956e-06 0)
(2.66642e-05 -6.33334e-06 0)
(2.72931e-05 -4.98782e-06 0)
(2.77135e-05 -3.66163e-06 0)
(2.79399e-05 -2.37048e-06 0)
(2.79855e-05 -1.14205e-06 0)
(2.78632e-05 2.06314e-08 0)
(2.75932e-05 1.104e-06 0)
(2.71964e-05 2.10019e-06 0)
(2.66849e-05 3.00906e-06 0)
(2.60674e-05 3.82846e-06 0)
(2.53713e-05 4.55209e-06 0)
(2.46186e-05 5.18616e-06 0)
(2.38046e-05 5.74648e-06 0)
(2.29306e-05 6.23003e-06 0)
(2.20303e-05 6.6282e-06 0)
(2.11356e-05 6.94274e-06 0)
(2.0226e-05 7.19941e-06 0)
(1.92826e-05 7.40895e-06 0)
(1.8334e-05 7.57053e-06 0)
(1.7408e-05 7.68175e-06 0)
(1.65006e-05 7.76155e-06 0)
(1.55787e-05 7.83015e-06 0)
(1.46288e-05 7.89694e-06 0)
(1.36834e-05 7.94865e-06 0)
(1.27734e-05 7.96851e-06 0)
(1.18971e-05 7.9559e-06 0)
(1.1028e-05 7.92538e-06 0)
(1.01484e-05 7.89428e-06 0)
(9.26682e-06 7.85752e-06 0)
(8.40434e-06 7.81068e-06 0)
(7.56733e-06 7.7576e-06 0)
(6.74767e-06 7.70933e-06 0)
(5.93256e-06 7.67175e-06 0)
(5.11566e-06 7.64286e-06 0)
(4.29972e-06 7.61605e-06 0)
(3.488e-06 7.5842e-06 0)
(2.68326e-06 7.54875e-06 0)
(1.87475e-06 7.5162e-06 0)
(1.08561e-06 7.52315e-06 0)
(2.95565e-07 6.82542e-06 0)
(-1.37006e-07 -2.55163e-06 0)
(-3.17191e-07 -4.84914e-07 0)
(-9.39819e-08 2.04789e-07 0)
(1.71622e-09 3.58797e-07 0)
(1.59752e-07 3.63501e-07 0)
(2.57453e-07 3.61736e-07 0)
(3.48526e-07 3.60714e-07 0)
(4.12806e-07 3.7048e-07 0)
(4.58245e-07 3.94498e-07 0)
(4.85008e-07 4.3379e-07 0)
(4.93988e-07 4.89208e-07 0)
(4.85062e-07 5.61908e-07 0)
(4.59359e-07 6.52679e-07 0)
(4.1598e-07 7.60287e-07 0)
(3.5261e-07 8.85666e-07 0)
(2.67898e-07 1.02673e-06 0)
(1.54599e-07 1.18203e-06 0)
(2.00256e-08 1.34927e-06 0)
(-1.38615e-07 1.52178e-06 0)
(-3.32782e-07 1.70171e-06 0)
(-5.59483e-07 1.88191e-06 0)