/*--------------------------------*- C++ -*----------------------------------*\
| =========                 |                                                 |
| \\      /  F ield         | OpenFOAM: The Open Source CFD Toolbox           |
|  \\    /   O peration     | Version:  2312                                  |
|   \\  /    A nd           | Website:  www.openfoam.com                      |
|    \\/     M anipulation  |                                                 |
\*---------------------------------------------------------------------------*/
FoamFile
{
    version     2.0;
    format      ascii;
    arch        "LSB;label=32;scalar=64";
    class       surfaceScalarField;
    location    "0.4";
    object      alphaPhi0.water;
}
// * * * * * * * * * * * * * * * * * * * * * * * * * * * * * * * * * * * * * //

dimensions      [0 3 -1 0 0 0 0];

oriented        oriented;

internalField   nonuniform List<scalar> 
19800
(
-1.72463e-13
1.77781e-13
-8.61353e-13
6.88298e-13
-1.80246e-12
9.40263e-13
-2.61427e-12
8.11488e-13
-3.22152e-12
6.07542e-13
-3.716e-12
4.94981e-13
-4.21774e-12
5.01934e-13
-4.80892e-12
5.90845e-13
-5.53519e-12
7.25572e-13
-6.42173e-12
8.85887e-13
-7.48498e-12
1.063e-12
-8.73799e-12
1.25335e-12
-1.01928e-11
1.45566e-12
-1.18612e-11
1.66975e-12
-1.37548e-11
1.89482e-12
-1.5884e-11
2.13001e-12
-1.8258e-11
2.37413e-12
-2.0884e-11
2.62546e-12
-2.37667e-11
2.88215e-12
-2.6908e-11
3.14147e-12
-3.03065e-11
3.39979e-12
-3.3957e-11
3.65231e-12
-3.78486e-11
3.89342e-12
-4.19647e-11
4.11699e-12
-4.62813e-11
4.31647e-12
-5.07668e-11
4.4849e-12
-5.5382e-11
4.61492e-12
-6.00802e-11
4.69879e-12
-6.48071e-11
4.72828e-12
-6.95002e-11
4.69492e-12
-7.40889e-11
4.59027e-12
-7.84946e-11
4.40662e-12
-8.26319e-11
4.13747e-12
-8.64083e-11
3.77618e-12
-8.9727e-11
3.31863e-12
-9.24899e-11
2.76335e-12
-9.4597e-11
2.10772e-12
-9.59507e-11
1.35417e-12
-9.64615e-11
5.10831e-13
-9.60429e-11
-4.19077e-13
-9.4627e-11
-1.41655e-12
-9.21601e-11
-2.46748e-12
-8.86102e-11
-3.55077e-12
-8.39693e-11
-4.64215e-12
-7.8257e-11
-5.71309e-12
-7.15186e-11
-6.73819e-12
-6.38331e-11
-7.68456e-12
-5.53091e-11
-8.52308e-12
-4.60825e-11
-9.22624e-12
-3.63132e-11
-9.76957e-12
-2.61807e-11
-1.01333e-11
-1.58777e-11
-1.03035e-11
-5.60471e-12
-1.02736e-11
4.43866e-12
-1.00442e-11
1.40572e-11
-9.61954e-12
2.30776e-11
-9.02155e-12
3.13587e-11
-8.28156e-12
3.87553e-11
-7.39658e-12
4.51671e-11
-6.41101e-12
5.05244e-11
-5.35616e-12
5.47876e-11
-4.26276e-12
5.79485e-11
-3.16126e-12
6.00276e-11
-2.08013e-12
6.10719e-11
-1.04526e-12
6.11449e-11
-7.32153e-14
6.03295e-11
8.16344e-13
5.87246e-11
1.60566e-12
5.6434e-11
2.29143e-12
5.35683e-11
2.86694e-12
5.0236e-11
3.33121e-12
4.65499e-11
3.68579e-12
4.2614e-11
3.93504e-12
3.85263e-11
4.08645e-12
3.43772e-11
4.14815e-12
3.02462e-11
4.1303e-12
2.62025e-11
4.04466e-12
2.23066e-11
3.89751e-12
1.86049e-11
3.7028e-12
1.51379e-11
3.46753e-12
1.19367e-11
3.20222e-12
9.02743e-12
2.91086e-12
6.4117e-12
2.61553e-12
4.10854e-12
2.30521e-12
2.10858e-12
1.99871e-12
4.15625e-13
1.69483e-12
-9.83006e-13
1.39881e-12
-2.09624e-12
1.11535e-12
-2.93621e-12
8.40768e-13
-3.51547e-12
5.80499e-13
-3.85235e-12
3.39334e-13
-3.96574e-12
1.10656e-13
-3.88306e-12
-8.48146e-14
-3.62803e-12
-2.5463e-13
-3.22641e-12
-3.99749e-13
-2.70681e-12
-5.17174e-13
-2.09959e-12
-6.06696e-13
-1.43941e-12
-6.60175e-13
-7.75872e-13
-6.60832e-13
-2.03375e-13
-5.74411e-13
-2.01035e-13
6.99674e-14
1.07374e-13
-5.01116e-13
1.25782e-12
-1.63209e-12
2.07059e-12
-2.93133e-12
2.11097e-12
-4.11107e-12
1.78782e-12
-5.17069e-12
1.55474e-12
-6.22427e-12
1.55495e-12
-7.38407e-12
1.74965e-12
-8.73139e-12
2.07203e-12
-1.0322e-11
2.47624e-12
-1.21957e-11
2.93741e-12
-1.43848e-11
3.44391e-12
-1.69177e-11
3.99049e-12
-1.98189e-11
4.57287e-12
-2.31114e-11
5.18855e-12
-2.68152e-11
5.83398e-12
-3.09468e-11
6.50521e-12
-3.55192e-11
7.19738e-12
-4.054e-11
7.90378e-12
-4.60121e-11
8.61579e-12
-5.19316e-11
9.32247e-12
-5.82871e-11
1.00105e-11
-6.50574e-11
1.06649e-11
-7.22101e-11
1.12694e-11
-7.97004e-11
1.1806e-11
-8.74709e-11
1.22553e-11
-9.54511e-11
1.25963e-11
-1.03557e-10
1.28067e-11
-1.11689e-10
1.28638e-11
-1.19737e-10
1.27447e-11
-1.27572e-10
1.24272e-11
-1.35056e-10
1.18907e-11
-1.42035e-10
1.11166e-11
-1.48349e-10
1.00898e-11
-1.53828e-10
8.79832e-12
-1.583e-10
7.23671e-12
-1.61594e-10
5.40198e-12
-1.63547e-10
3.30688e-12
-1.64003e-10
9.66476e-13
-1.62825e-10
-1.59839e-12
-1.59896e-10
-4.34685e-12
-1.55138e-10
-7.22671e-12
-1.48507e-10
-1.01834e-11
-1.4e-10
-1.31493e-11
-1.29666e-10
-1.6047e-11
-1.17597e-10
-1.88056e-11
-1.03944e-10
-2.13361e-11
-8.89067e-11
-2.35609e-11
-7.27292e-11
-2.54046e-11
-5.56962e-11
-2.68033e-11
-3.81249e-11
-2.7705e-11
-2.03521e-11
-2.80768e-11
-2.72351e-12
-2.79034e-11
1.44198e-11
-2.71889e-11
3.07554e-11
-2.59559e-11
4.59858e-11
-2.42522e-11
5.98417e-11
-2.2137e-11
7.2122e-11
-1.96761e-11
8.26612e-11
-1.69493e-11
9.13501e-11
-1.40442e-11
9.81323e-11
-1.10461e-11
1.03006e-10
-8.03678e-12
1.06014e-10
-5.09043e-12
1.07245e-10
-2.276e-12
1.06823e-10
3.49697e-13
1.04899e-10
2.74116e-12
1.01643e-10
4.86362e-12
9.72383e-11
6.69635e-12
9.18802e-11
8.22626e-12
8.57586e-11
9.45026e-12
7.90656e-11
1.0376e-11
7.19822e-11
1.10171e-11
6.46757e-11
1.13924e-11
5.72995e-11
1.1525e-11
4.99893e-11
1.14414e-11
4.28653e-11
1.11701e-11
3.60276e-11
1.07374e-11
2.95598e-11
1.01726e-11
2.35263e-11
9.50212e-12
1.7975e-11
8.75308e-12
1.29441e-11
7.94291e-12
8.45672e-12
7.10394e-12
4.51622e-12
6.24809e-12
1.1246e-12
5.38961e-12
-1.7217e-12
4.54338e-12
-4.04086e-12
3.72269e-12
-5.85329e-12
2.92947e-12
-7.18287e-12
2.16927e-12
-8.05881e-12
1.45395e-12
-8.50859e-12
7.88598e-13
-8.57083e-12
1.75171e-13
-8.28643e-12
-3.67171e-13
-7.69511e-12
-8.45445e-13
-6.8398e-12
-1.25188e-12
-5.76883e-12
-1.58589e-12
-4.53033e-12
-1.84243e-12
-3.19127e-12
-2.00167e-12
-1.83801e-12
-2.01276e-12
-6.09732e-13
-1.79961e-12
-8.10988e-13
2.63998e-13
-1.57465e-13
3.27794e-13
1.19247e-12
-1.97943e-13
2.59575e-12
-1.17439e-12
3.08746e-12
-2.33412e-12
2.9477e-12
-3.54987e-12
2.77028e-12
-4.82679e-12
2.83124e-12
-6.22529e-12
3.14733e-12
-7.81338e-12
3.6595e-12
-9.65141e-12
4.31417e-12
-1.17904e-11
5.07702e-12
-1.4274e-11
5.9288e-12
-1.714e-11
6.85811e-12
-2.04223e-11
7.85651e-12
-2.4151e-11
8.91781e-12
-2.83513e-11
1.00341e-11
-3.30434e-11
1.11971e-11
-3.82433e-11
1.23978e-11
-4.39607e-11
1.3623e-11
-5.01987e-11
1.48565e-11
-5.69535e-11
1.60797e-11
-6.42115e-11
1.72698e-11
-7.19481e-11
1.84015e-11
-8.01263e-11
1.94469e-11
-8.86958e-11
2.03751e-11
-9.75921e-11
2.11522e-11
-1.06736e-10
2.17417e-11
-1.16033e-10
2.21053e-11
-1.25371e-10
2.22037e-11
-1.34622e-10
2.19975e-11
-1.43642e-10
2.14482e-11
-1.52271e-10
2.05198e-11
-1.60334e-10
1.91797e-11
-1.67645e-10
1.74011e-11
-1.74008e-10
1.51622e-11
-1.79224e-10
1.24535e-11
-1.83096e-10
9.27344e-12
-1.85427e-10
5.63767e-12
-1.86041e-10
1.57881e-12
-1.8477e-10
-2.87046e-12
-1.81481e-10
-7.636e-12
-1.76076e-10
-1.26311e-11
-1.68503e-10
-1.77566e-11
-1.58757e-10
-2.28954e-11
-1.46886e-10
-2.7917e-11
-1.33011e-10
-3.26806e-11
-1.17297e-10
-3.70504e-11
-9.99776e-11
-4.08797e-11
-8.13407e-11
-4.40411e-11
-6.1721e-11
-4.64221e-11
-4.14907e-11
-4.79345e-11
-2.1045e-11
-4.85222e-11
-7.89687e-13
-4.81588e-11
1.88755e-11
-4.68542e-11
3.75769e-11
-4.46567e-11
5.49639e-11
-4.16389e-11
7.07356e-11
-3.79088e-11
8.46505e-11
-3.35914e-11
9.65274e-11
-2.88271e-11
1.06246e-10
-2.37636e-11
1.13749e-10
-1.85504e-11
1.19041e-10
-1.33309e-11
1.22182e-10
-8.23337e-12
1.23282e-10
-3.37581e-12
1.22489e-10
1.14306e-12
1.19987e-10
5.2434e-12
1.15978e-10
8.87526e-12
1.10675e-10
1.1998e-11
1.04307e-10
1.45938e-11
9.70952e-11
1.66596e-11
8.92599e-11
1.82099e-11
8.10086e-11
1.92683e-11
7.25313e-11
1.98698e-11
6.40032e-11
2.00542e-11
5.55783e-11
1.98673e-11
4.73887e-11
1.93583e-11
3.95497e-11
1.85762e-11
3.21532e-11
1.75693e-11
2.52703e-11
1.63843e-11
1.89646e-11
1.50596e-11
1.32569e-11
1.36497e-11
8.18555e-12
1.21778e-11
3.75115e-12
1.06819e-11
-3.23981e-14
9.17676e-12
-3.19959e-12
7.71018e-12
-5.75386e-12
6.27699e-12
-7.72134e-12
4.89786e-12
-9.13939e-12
3.58586e-12
-1.00377e-11
2.35452e-12
-1.04574e-11
1.21186e-12
-1.04483e-11
1.66079e-13
-1.00429e-11
-7.7059e-13
-9.29402e-12
-1.5939e-12
-8.24736e-12
-2.29919e-12
-6.9518e-12
-2.88146e-12
-5.46201e-12
-3.3308e-12
-3.84675e-12
-3.61184e-12
-2.22195e-12
-3.63884e-12
-7.56355e-13
-3.26252e-12
-1.5716e-12
1.52109e-13
-3.10504e-13
4.08993e-13
9.33918e-13
3.75281e-13
2.62865e-12
-1.18529e-13
3.58094e-12
-9.62533e-13
3.79149e-12
-2.03159e-12
3.83897e-12
-3.26906e-12
4.06811e-12
-4.68269e-12
4.56026e-12
-6.30908e-12
5.28535e-12
-8.19701e-12
6.20199e-12
-1.03934e-11
7.27392e-12
-1.29443e-11
8.48069e-12
-1.58912e-11
9.80607e-12
-1.9272e-11
1.1238e-11
-2.31203e-11
1.27662e-11
-2.74646e-11
1.43784e-11
-3.23293e-11
1.60623e-11
-3.77316e-11
1.78017e-11
-4.36841e-11
1.95782e-11
-5.01931e-11
2.1368e-11
-5.72554e-11
2.31435e-11
-6.48585e-11
2.48731e-11
-7.29786e-11
2.6521e-11
-8.15793e-11
2.80472e-11
-9.06111e-11
2.94072e-11
-1.0001e-10
3.0552e-11
-1.09696e-10
3.14292e-11
-1.19573e-10
3.19835e-11
-1.29526e-10
3.21581e-11
-1.39423e-10
3.18957e-11
-1.49113e-10
3.11397e-11
-1.58429e-10
2.98363e-11
-1.67186e-10
2.79368e-11
-1.75185e-10
2.54003e-11
-1.82217e-10
2.21954e-11
-1.88066e-10
1.83024e-11
-1.92514e-10
1.37205e-11
-1.95347e-10
8.4697e-12
-1.9636e-10
2.5905e-12
-1.95371e-10
-3.85917e-12
-1.92222e-10
-1.07837e-11
-1.86798e-10
-1.80544e-11
-1.79028e-10
-2.5526e-11
-1.68896e-10
-3.30269e-11
-1.56449e-10
-4.03632e-11
-1.41798e-10
-4.73319e-11
-1.25128e-10
-5.37193e-11
-1.06686e-10
-5.93207e-11
-8.67847e-11
-6.39409e-11
-6.57918e-11
-6.74134e-11
-4.41185e-11
-6.96068e-11
-2.2203e-11
-7.04369e-11
-4.94843e-13
-6.98661e-11
2.05625e-11
-6.79107e-11
4.05506e-11
-6.46446e-11
5.9088e-11
-6.01772e-11
7.58478e-11
-5.46698e-11
9.05661e-11
-4.83102e-11
1.03048e-10
-4.13097e-11
1.13171e-10
-3.38875e-11
1.20883e-10
-2.62643e-11
1.26201e-10
-1.86501e-11
1.292e-10
-1.12348e-11
1.30011e-10
-4.18711e-12
1.2881e-10
2.34441e-12
1.25798e-10
8.25563e-12
1.21204e-10
1.34707e-11
1.15266e-10
1.79345e-11
1.08233e-10
2.16253e-11
1.00347e-10
2.45436e-11
9.18454e-11
2.6711e-11
8.29479e-11
2.81659e-11
7.38575e-11
2.89593e-11
6.47561e-11
2.91538e-11
5.58065e-11
2.8817e-11
4.71449e-11
2.80186e-11
3.88881e-11
2.68324e-11
3.11301e-11
2.53273e-11
2.39438e-11
2.35677e-11
1.73846e-11
2.1621e-11
1.14819e-11
1.95524e-11
6.26894e-12
1.73939e-11
1.74718e-12
1.5204e-11
-2.10258e-12
1.30285e-11
-5.27509e-12
1.08831e-11
-7.79948e-12
8.80078e-12
-9.70807e-12
6.80878e-12
-1.1037e-11
4.91695e-12
-1.18262e-11
3.14485e-12
-1.21205e-11
1.50815e-12
-1.19688e-11
1.30599e-14
-1.14122e-11
-1.32642e-12
-1.05019e-11
-2.5054e-12
-9.28195e-12
-3.51827e-12
-7.80359e-12
-4.35922e-12
-6.12347e-12
-5.01422e-12
-4.31028e-12
-5.4247e-12
-2.4883e-12
-5.46398e-12
-8.532e-13
-4.89579e-12
-2.42473e-12
-5.27925e-14
-2.58726e-13
9.6945e-14
7.82175e-13
2.53544e-13
2.47082e-12
1.28195e-13
3.70557e-12
-3.51673e-13
4.27093e-12
-1.13276e-12
4.61966e-12
-2.16447e-12
5.09928e-12
-3.42669e-12
5.8218e-12
-4.94044e-12
6.79846e-12
-6.73649e-12
7.99772e-12
-8.85827e-12
9.39579e-12
-1.13468e-11
1.09696e-11
-1.42433e-11
1.27027e-11
-1.75873e-11
1.45817e-11
-2.14135e-11
1.65921e-11
-2.57534e-11
1.87186e-11
-3.06328e-11
2.09432e-11
-3.60746e-11
2.32459e-11
-4.20945e-11
2.56006e-11
-4.87014e-11
2.79766e-11
-5.58961e-11
3.03388e-11
-6.36694e-11
3.2646e-11
-7.20007e-11
3.4852e-11
-8.08576e-11
3.69043e-11
-9.0194e-11
3.87442e-11
-9.99489e-11
4.03076e-11
-1.10045e-10
4.15257e-11
-1.20386e-10
4.23256e-11
-1.30859e-10
4.26317e-11
-1.41328e-10
4.23666e-11
-1.51642e-10
4.14538e-11
-1.61625e-10
3.98196e-11
-1.71084e-10
3.73967e-11
-1.7981e-10
3.41271e-11
-1.87579e-10
2.99656e-11
-1.94159e-10
2.48819e-11
-1.99309e-10
1.88699e-11
-2.02791e-10
1.195e-11
-2.04379e-10
4.17802e-12
-2.03857e-10
-4.3799e-12
-2.0104e-10
-1.35979e-11
-1.95788e-10
-2.33047e-11
-1.88006e-10
-3.33073e-11
-1.77658e-10
-4.33737e-11
-1.64778e-10
-5.32423e-11
-1.49477e-10
-6.26315e-11
-1.31936e-10
-7.12593e-11
-1.12428e-10
-7.88278e-11
-9.12887e-11
-8.50794e-11
-6.89247e-11
-8.97766e-11
-4.57911e-11
-9.274e-11
-2.23782e-11
-9.38492e-11
8.11038e-13
-9.30544e-11
2.32795e-11
-9.03788e-11
4.45577e-11
-8.59232e-11
6.42255e-11
-7.98458e-11
8.19222e-11
-7.23669e-11
9.73643e-11
-6.37514e-11
1.10343e-10
-5.42878e-11
1.20733e-10
-4.42783e-11
1.28495e-10
-3.40283e-11
1.33663e-10
-2.3819e-11
1.36336e-10
-1.39084e-11
1.36668e-10
-4.52048e-12
1.34869e-10
4.14423e-12
1.3117e-10
1.19549e-11
1.25829e-10
1.88108e-11
1.19114e-10
2.46479e-11
1.11298e-10
2.94397e-11
1.02646e-10
3.31946e-11
9.34098e-11
3.5945e-11
8.38246e-11
3.77492e-11
7.41056e-11
3.86783e-11
6.44395e-11
3.8818e-11
5.49947e-11
3.82613e-11
4.59075e-11
3.7105e-11
3.72959e-11
3.54435e-11
2.92501e-11
3.33731e-11
2.1844e-11
3.09747e-11
1.51205e-11
2.83469e-11
9.11667e-12
2.55576e-11
3.84299e-12
2.26672e-11
-6.97964e-13
1.97467e-11
-4.50925e-12
1.6842e-11
-7.61776e-12
1.39931e-11
-1.00511e-11
1.12382e-11
-1.18464e-11
8.60396e-12
-1.30406e-11
6.11231e-12
-1.36817e-11
3.78607e-12
-1.38175e-11
1.64307e-12
-1.3498e-11
-3.06919e-13
-1.27663e-11
-2.05504e-12
-1.16768e-11
-3.59319e-12
-1.02728e-11
-4.91684e-12
-8.60855e-12
-6.01933e-12
-6.73829e-12
-6.88204e-12
-4.7362e-12
-7.42456e-12
-2.72809e-12
-7.47191e-12
-9.38243e-13
-6.69098e-12
-3.36337e-12
-1.63936e-13
-9.60301e-14
-1.32114e-13
7.47949e-13
8.1975e-14
2.25519e-12
1.84044e-13
3.60264e-12
8.21057e-15
4.44635e-12
-4.70591e-13
5.09813e-12
-1.22908e-12
5.85722e-12
-2.26194e-12
6.85384e-12
-3.57529e-12
8.11092e-12
-5.19629e-12
9.61796e-12
-7.15869e-12
1.13576e-11
-9.50577e-12
1.33161e-11
-1.22754e-11
1.54716e-11
-1.55067e-11
1.78122e-11
-1.92363e-11
2.03214e-11
-2.34979e-11
2.29811e-11
-2.83227e-11
2.57699e-11
-3.37363e-11
2.86619e-11
-3.97588e-11
3.16251e-11
-4.64048e-11
3.46235e-11
-5.368e-11
3.76141e-11
-6.15801e-11
4.05461e-11
-7.00904e-11
4.33625e-11
-7.91841e-11
4.59983e-11
-8.88206e-11
4.83808e-11
-9.89434e-11
5.04305e-11
-1.09479e-10
5.20612e-11
-1.20334e-10
5.31813e-11
-1.31395e-10
5.36943e-11
-1.42529e-10
5.35012e-11
-1.53578e-10
5.2503e-11
-1.64361e-10
5.06036e-11
-1.74677e-10
4.77135e-11
-1.84302e-10
4.37533e-11
-1.92997e-10
3.86614e-11
-2.00506e-10
3.23905e-11
-2.06562e-10
2.49254e-11
-2.10897e-10
1.62849e-11
-2.13247e-10
6.5289e-12
-2.13371e-10
-4.25412e-12
-2.11036e-10
-1.59306e-11
-2.06066e-10
-2.82726e-11
-1.98333e-10
-4.10383e-11
-1.87775e-10
-5.39302e-11
-1.74404e-10
-6.66117e-11
-1.5832e-10
-7.87151e-11
-1.39723e-10
-8.98558e-11
-1.18888e-10
-9.96628e-11
-9.62011e-11
-1.07767e-10
-7.21057e-11
-1.13872e-10
-4.71235e-11
-1.17722e-10
-2.18119e-11
-1.19161e-10
3.25382e-12
-1.1812e-10
2.75026e-11
-1.14628e-10
5.04028e-11
-1.08823e-10
7.14775e-11
-1.0092e-10
9.03237e-11
-9.12115e-11
1.06626e-10
-8.00516e-11
1.20163e-10
-6.78249e-11
1.3082e-10
-5.49357e-11
1.38564e-10
-4.17735e-11
1.43454e-10
-2.87104e-11
1.45624e-10
-1.6079e-11
1.45264e-10
-4.16128e-12
1.42631e-10
6.77723e-12
1.37994e-10
1.6593e-11
1.31649e-10
2.51549e-11
1.23903e-10
3.23923e-11
1.15059e-10
3.8282e-11
1.05409e-10
4.28421e-11
9.52303e-11
4.61233e-11
8.47717e-11
4.8206e-11
7.42618e-11
4.91889e-11
6.38959e-11
4.91842e-11
5.38446e-11
4.83133e-11
4.42471e-11
4.67017e-11
3.52181e-11
4.44733e-11
2.68448e-11
4.17446e-11
1.91905e-11
3.8631e-11
1.22969e-11
3.52408e-11
6.19012e-12
3.16637e-11
8.72266e-13
2.79882e-11
-3.6569e-12
2.42786e-11
-7.41386e-12
2.06022e-11
-1.04325e-11
1.70113e-11
-1.27412e-11
1.35491e-11
-1.4388e-11
1.02505e-11
-1.54122e-11
7.13822e-12
-1.58696e-11
4.24285e-12
-1.58103e-11
1.58329e-12
-1.5286e-11
-8.31342e-13
-1.43412e-11
-2.99443e-12
-1.30365e-11
-4.89879e-12
-1.14143e-11
-6.5372e-12
-9.53301e-12
-7.90592e-12
-7.44186e-12
-8.97443e-12
-5.22296e-12
-9.64716e-12
-3.00182e-12
-9.68806e-12
-1.03225e-12
-8.66034e-12
-4.39738e-12
-1.59294e-13
6.17387e-14
-1.36628e-13
7.22745e-13
1.42977e-13
1.97406e-12
4.15778e-13
3.32912e-12
4.88998e-13
4.37287e-12
2.9279e-13
5.29407e-12
-1.86688e-13
6.33608e-12
-9.54979e-13
7.62114e-12
-2.02104e-12
9.17579e-12
-3.41572e-12
1.10114e-11
-5.17187e-12
1.31126e-11
-7.32157e-12
1.54646e-11
-9.91121e-12
1.80601e-11
-1.29794e-11
2.08796e-11
-1.65647e-11
2.39067e-11
-2.07046e-11
2.71221e-11
-2.54334e-11
3.05006e-11
-3.07822e-11
3.40126e-11
-3.67785e-11
3.76227e-11
-4.34416e-11
4.12872e-11
-5.07836e-11
4.49564e-11
-5.88078e-11
4.85704e-11
-6.7507e-11
5.20619e-11
-7.68619e-11
5.53529e-11
-8.68385e-11
5.8357e-11
-9.73867e-11
6.09785e-11
-1.08438e-10
6.3113e-11
-1.19905e-10
6.46482e-11
-1.31675e-10
6.54655e-11
-1.43616e-10
6.54417e-11
-1.55566e-10
6.44527e-11
-1.67338e-10
6.23762e-11
-1.78719e-10
5.90962e-11
-1.89472e-10
5.45078e-11
-1.99333e-10
4.85242e-11
-2.08023e-10
4.10802e-11
-2.15242e-10
3.21439e-11
-2.20683e-10
2.17261e-11
-2.24035e-10
9.88237e-12
-2.2502e-10
-3.26727e-12
-2.23341e-10
-1.7607e-11
-2.18779e-10
-3.28326e-11
-2.11159e-10
-4.86554e-11
-2.0038e-10
-6.47078e-11
-1.86427e-10
-8.05645e-11
-1.69387e-10
-9.57552e-11
-1.49456e-10
-1.09788e-10
-1.26947e-10
-1.22173e-10
-1.0227e-10
-1.32444e-10
-7.59575e-11
-1.40184e-10
-4.85967e-11
-1.45083e-10
-2.08399e-11
-1.46917e-10
6.63856e-12
-1.45598e-10
3.31786e-11
-1.41167e-10
5.8155e-11
-1.33799e-10
8.10177e-11
-1.2378e-10
1.01308e-10
-1.115e-10
1.18675e-10
-9.74174e-11
1.32887e-10
-8.20374e-11
1.43826e-10
-6.58747e-11
1.51487e-10
-4.94346e-11
1.55963e-10
-3.31875e-11
1.57433e-10
-1.75492e-11
1.56144e-10
-2.87292e-12
1.52399e-10
1.05217e-11
1.46528e-10
2.24648e-11
1.38877e-10
3.28058e-11
1.29798e-10
4.14701e-11
1.19638e-10
4.84428e-11
1.0872e-10
5.3759e-11
9.73495e-11
5.74955e-11
8.57961e-11
5.97597e-11
7.43011e-11
6.0684e-11
6.30704e-11
6.04146e-11
5.22775e-11
5.91079e-11
4.20597e-11
5.69189e-11
3.25293e-11
5.40038e-11
2.37683e-11
5.05039e-11
1.58242e-11
4.65732e-11
8.74097e-12
4.23256e-11
2.52297e-12
3.78784e-11
-2.82667e-12
3.33386e-11
-7.32672e-12
2.87809e-11
-1.10018e-11
2.4282e-11
-1.38934e-11
1.99045e-11
-1.60392e-11
1.56989e-11
-1.7493e-11
1.17057e-11
-1.83062e-11
7.9532e-12
-1.85316e-11
4.47177e-12
-1.82287e-11
1.283e-12
-1.74514e-11
-1.61013e-12
-1.62505e-11
-4.19369e-12
-1.46808e-11
-6.46795e-12
-1.27957e-11
-8.42298e-12
-1.06485e-11
-1.00565e-11
-8.29339e-12
-1.13303e-11
-5.80979e-12
-1.21292e-11
-3.34111e-12
-1.21592e-11
-1.15167e-12
-1.08487e-11
-5.54296e-12
-7.10189e-14
1.31102e-13
5.90004e-14
5.90516e-13
4.6025e-13
1.57165e-12
9.0889e-13
2.88009e-12
1.21528e-12
4.06644e-12
1.28684e-12
5.22233e-12
1.09053e-12
6.53178e-12
6.1145e-13
8.09918e-12
-1.81987e-13
9.96794e-12
-1.31138e-12
1.21395e-11
-2.81383e-12
1.46138e-11
-4.72848e-12
1.73781e-11
-7.09311e-12
2.04238e-11
-9.95468e-12
2.37408e-11
-1.3355e-11
2.73073e-11
-1.73343e-11
3.11023e-11
-2.19332e-11
3.51007e-11
-2.7189e-11
3.92696e-11
-3.31343e-11
4.35688e-11
-3.97978e-11
4.79513e-11
-4.71992e-11
5.2358e-11
-5.53514e-11
5.67224e-11
-6.42561e-11
6.09658e-11
-7.39026e-11
6.49986e-11
-8.42662e-11
6.872e-11
-9.53051e-11
7.20173e-11
-1.06959e-10
7.4767e-11
-1.19145e-10
7.68347e-11
-1.31757e-10
7.80775e-11
-1.44662e-10
7.83458e-11
-1.57696e-10
7.74866e-11
-1.70666e-10
7.53474e-11
-1.83348e-10
7.17799e-11
-1.95487e-10
6.66479e-11
-2.06795e-10
5.98333e-11
-2.16959e-10
5.12453e-11
-2.25641e-10
4.08262e-11
-2.32484e-10
2.85693e-11
-2.37124e-10
1.45229e-11
-2.39246e-10
-1.14386e-12
-2.38443e-10
-1.84086e-11
-2.34458e-10
-3.68164e-11
-2.27049e-10
-5.6062e-11
-2.16062e-10
-7.56947e-11
-2.0144e-10
-9.51868e-11
-1.83247e-10
-1.13949e-10
-1.61683e-10
-1.31353e-10
-1.3708e-10
-1.46775e-10
-1.0992e-10
-1.59604e-10
-8.07976e-11
-1.69306e-10
-5.04207e-11
-1.75459e-10
-1.95603e-11
-1.77777e-10
1.0982e-11
-1.76139e-10
4.04188e-11
-1.70603e-10
6.801e-11
-1.61389e-10
9.31115e-11
-1.48881e-10
1.15189e-10
-1.33577e-10
1.33854e-10
-1.16083e-10
1.48855e-10
-9.70381e-11
1.60085e-10
-7.71056e-11
1.67573e-10
-5.69218e-11
1.7146e-10
-3.70756e-11
1.7199e-10
-1.80801e-11
1.69473e-10
-3.55739e-13
1.64295e-10
1.57001e-11
1.56844e-10
2.99154e-11
1.47538e-10
4.21122e-11
1.36787e-10
5.22229e-11
1.24986e-10
6.02468e-11
1.125e-10
6.62463e-11
9.96659e-11
7.03315e-11
8.6778e-11
7.26478e-11
7.40924e-11
7.33689e-11
6.18253e-11
7.26814e-11
5.01492e-11
7.07824e-11
3.92034e-11
6.78634e-11
2.90897e-11
6.41147e-11
1.98866e-11
5.97076e-11
1.16204e-11
5.4837e-11
4.33504e-12
4.96105e-11
-1.98903e-12
4.4203e-11
-7.35859e-12
3.87076e-11
-1.18034e-11
3.32255e-11
-1.53609e-11
2.78422e-11
-1.80839e-11
2.26278e-11
-2.00206e-11
1.76388e-11
-2.12318e-11
1.29192e-11
-2.17765e-11
8.49885e-12
-2.17217e-11
4.41768e-12
-2.11208e-11
6.8168e-13
-2.00327e-11
-2.69527e-12
-1.85237e-11
-5.70814e-12
-1.66375e-11
-8.35018e-12
-1.44397e-11
-1.06223e-11
-1.19751e-11
-1.25164e-11
-9.30919e-12
-1.39976e-11
-6.51521e-12
-1.49184e-11
-3.7443e-12
-1.49269e-11
-1.29487e-12
-1.32999e-11
-6.83932e-12
6.52356e-14
6.43771e-14
3.80791e-13
2.73444e-13
9.75452e-13
9.76379e-13
1.63939e-12
2.21618e-12
2.19813e-12
3.50795e-12
2.55323e-12
4.86729e-12
2.65704e-12
6.42757e-12
2.47695e-12
8.27844e-12
1.98782e-12
1.04561e-11
1.1563e-12
1.29702e-11
-5.23841e-14
1.58219e-11
-1.68694e-12
1.90124e-11
-3.78865e-12
2.25254e-11
-6.3998e-12
2.63519e-11
-9.57076e-12
3.04783e-11
-1.33499e-11
3.48816e-11
-1.77812e-11
3.95325e-11
-2.29096e-11
4.43987e-11
-2.87772e-11
4.9437e-11
-3.54196e-11
5.4594e-11
-4.28685e-11
5.98065e-11
-5.11465e-11
6.49995e-11
-6.02666e-11
7.00848e-11
-7.02296e-11
7.49608e-11
-8.10217e-11
7.95119e-11
-9.26124e-11
8.36084e-11
-1.04951e-10
8.71062e-11
-1.17964e-10
8.9848e-11
-1.31552e-10
9.16642e-11
-1.45583e-10
9.23759e-11
-1.59894e-10
9.17972e-11
-1.74286e-10
8.97401e-11
-1.88524e-10
8.60189e-11
-2.02332e-10
8.0458e-11
-2.15398e-10
7.28999e-11
-2.27373e-10
6.32204e-11
-2.37869e-10
5.13214e-11
-2.46477e-10
3.71769e-11
-2.52771e-10
2.08175e-11
-2.56307e-10
2.39223e-12
-2.56687e-10
-1.80274e-11
-2.53512e-10
-3.99908e-11
-2.46466e-10
-6.31072e-11
-2.3532e-10
-8.68405e-11
-2.1996e-10
-1.10546e-10
-2.00415e-10
-1.33494e-10
-1.76876e-10
-1.5489e-10
-1.49717e-10
-1.73933e-10
-1.19478e-10
-1.89842e-10
-8.68633e-11
-2.01919e-10
-5.27147e-11
-2.09605e-10
-1.7964e-11
-2.12526e-10
1.64166e-11
-2.1052e-10
4.94728e-11
-2.0366e-10
8.03155e-11
-1.92233e-10
1.08174e-10
-1.76739e-10
1.32434e-10
-1.57839e-10
1.52646e-10
-1.36295e-10
1.68545e-10
-1.12938e-10
1.80046e-10
-8.86077e-11
1.87224e-10
-6.40999e-11
1.90288e-10
-4.01403e-11
1.89563e-10
-1.73554e-11
1.8547e-10
3.73753e-12
1.78457e-10
2.27131e-11
1.69021e-10
3.93525e-11
1.57654e-10
5.3481e-11
1.44839e-10
6.50396e-11
1.31031e-10
7.40575e-11
1.16644e-10
8.06342e-11
1.02051e-10
8.4925e-11
8.75722e-11
8.71254e-11
7.34807e-11
8.74577e-11
6.00015e-11
8.61614e-11
4.73049e-11
8.34758e-11
3.55269e-11
7.96403e-11
2.47654e-11
7.4875e-11
1.50685e-11
6.94032e-11
6.48083e-12
6.34258e-11
-1.03206e-12
5.71231e-11
-7.4479e-12
5.06208e-11
-1.28074e-11
4.40674e-11
-1.7156e-11
3.75744e-11
-2.05524e-11
3.12373e-11
-2.30538e-11
2.51297e-11
-2.47252e-11
1.93134e-11
-2.56375e-11
1.38335e-11
-2.5857e-11
8.71967e-12
-2.54513e-11
4.01525e-12
-2.44954e-11
-2.76445e-13
-2.3045e-11
-4.14427e-12
-2.11656e-11
-7.5877e-12
-1.89126e-11
-1.06019e-11
-1.63477e-11
-1.31917e-11
-1.35197e-11
-1.53446e-11
-1.04899e-11
-1.70256e-11
-7.34122e-12
-1.80677e-11
-4.22812e-12
-1.8045e-11
-1.46763e-12
-1.60597e-11
-8.30432e-12
2.28538e-13
-1.65243e-13
7.92832e-13
-2.91534e-13
1.63745e-12
1.31781e-13
2.56426e-12
1.28992e-12
3.40717e-12
2.66575e-12
4.0717e-12
4.20321e-12
4.50128e-12
5.99797e-12
4.65902e-12
8.12034e-12
4.50925e-12
1.06055e-11
4.01343e-12
1.3466e-11
3.1295e-12
1.67063e-11
1.81957e-12
2.03229e-11
3.39438e-14
2.43113e-11
-2.28382e-12
2.86693e-11
-5.18541e-12
3.33793e-11
-8.71632e-12
3.84121e-11
-1.29342e-11
4.37506e-11
-1.78946e-11
4.93597e-11
-2.36473e-11
5.51902e-11
-3.02397e-11
6.11862e-11
-3.7714e-11
6.728e-11
-4.61057e-11
7.33901e-11
-5.54405e-11
7.94189e-11
-6.57338e-11
8.52541e-11
-7.69861e-11
9.07648e-11
-8.91807e-11
9.58039e-11
-1.0228e-10
1.00206e-10
-1.16222e-10
1.0379e-10
-1.30916e-10
1.06357e-10
-1.46237e-10
1.07696e-10
-1.62023e-10
1.07583e-10
-1.78074e-10
1.0579e-10
-1.94141e-10
1.02087e-10
-2.09934e-10
9.62505e-11
-2.25108e-10
8.8074e-11
-2.39271e-10
7.7382e-11
-2.51989e-10
6.40386e-11
-2.6278e-10
4.79673e-11
-2.71137e-10
2.91742e-11
-2.76525e-10
7.78043e-12
-2.78452e-10
-1.61005e-11
-2.76394e-10
-4.20471e-11
-2.69931e-10
-6.95695e-11
-2.58731e-10
-9.80391e-11
-2.42598e-10
-1.26678e-10
-2.21506e-10
-1.54584e-10
-1.9563e-10
-1.80764e-10
-1.65376e-10
-2.04185e-10
-1.31365e-10
-2.23851e-10
-9.4433e-11
-2.38849e-10
-5.56008e-11
-2.48436e-10
-1.60112e-11
-2.52116e-10
2.31451e-11
-2.49677e-10
6.06897e-11
-2.41206e-10
9.55447e-11
-2.27089e-10
1.26779e-10
-2.07974e-10
1.53659e-10
-1.84719e-10
1.75682e-10
-1.58318e-10
1.92574e-10
-1.2983e-10
2.04281e-10
-1.00316e-10
2.10945e-10
-7.07654e-11
2.12873e-10
-4.20685e-11
2.10497e-10
-1.49792e-11
2.0437e-10
9.86468e-12
1.95046e-10
3.20365e-11
1.83133e-10
5.12649e-11
1.69229e-10
6.73868e-11
1.53899e-10
8.0371e-11
1.3767e-10
9.02876e-11
1.21013e-10
9.72915e-11
1.04338e-10
1.01597e-10
8.79978e-11
1.03464e-10
7.2278e-11
1.03176e-10
5.74086e-11
1.01031e-10
4.35601e-11
9.73237e-11
3.08622e-11
9.23389e-11
1.93929e-11
8.63455e-11
9.15586e-12
7.96393e-11
2.04887e-13
7.23776e-11
-7.48647e-12
6.48137e-11
-1.39572e-11
5.70923e-11
-1.92635e-11
4.93716e-11
-2.34645e-11
4.17756e-11
-2.66347e-11
3.44073e-11
-2.88489e-11
2.73451e-11
-3.01891e-11
2.06534e-11
-3.07302e-11
1.43777e-11
-3.05602e-11
8.54946e-12
-2.97415e-11
3.19756e-12
-2.83626e-11
-1.65287e-12
-2.64884e-11
-6.02118e-12
-2.41814e-11
-9.8958e-12
-2.15065e-11
-1.32791e-11
-1.85171e-11
-1.61756e-11
-1.5275e-11
-1.85862e-11
-1.18371e-11
-2.04612e-11
-8.28408e-12
-2.16163e-11
-4.77585e-12
-2.15528e-11
-1.66676e-12
-1.91715e-11
-9.97392e-12
4.09533e-13
-5.75359e-13
1.26252e-12
-1.14436e-12
2.41163e-12
-1.0166e-12
3.65203e-12
5.07163e-14
4.82047e-12
1.49858e-12
5.8276e-12
3.19698e-12
6.61723e-12
5.20873e-12
7.14501e-12
7.59269e-12
7.37184e-12
1.03791e-11
7.25586e-12
1.3583e-11
6.75261e-12
1.72108e-11
5.81062e-12
2.12658e-11
4.37427e-12
2.57477e-11
2.40004e-12
3.06427e-11
-1.6459e-13
3.5943e-11
-3.39527e-12
4.16425e-11
-7.35171e-12
4.77075e-11
-1.20899e-11
5.40985e-11
-1.76819e-11
6.07824e-11
-2.41817e-11
6.76855e-11
-3.16462e-11
7.47438e-11
-4.01257e-11
8.18691e-11
-4.96622e-11
8.89556e-11
-6.02865e-11
9.58791e-11
-7.20175e-11
1.02497e-10
-8.48551e-11
1.08643e-10
-9.87791e-11
1.14131e-10
-1.13743e-10
1.18753e-10
-1.29668e-10
1.22281e-10
-1.46441e-10
1.24467e-10
-1.63906e-10
1.25047e-10
-1.81862e-10
1.23745e-10
-2.00054e-10
1.20279e-10
-2.18171e-10
1.14367e-10
-2.35843e-10
1.05743e-10
-2.5263e-10
9.4168e-11
-2.68042e-10
7.94499e-11
-2.81518e-10
6.14424e-11
-2.92456e-10
4.01124e-11
-3.00206e-10
1.55311e-11
-3.0416e-10
-1.2146e-11
-3.03636e-10
-4.257e-11
-2.98073e-10
-7.51306e-11
-2.87004e-10
-1.09106e-10
-2.70114e-10
-1.43566e-10
-2.47294e-10
-1.77402e-10
-2.18686e-10
-2.09371e-10
-1.84715e-10
-2.38154e-10
-1.46103e-10
-2.62462e-10
-1.03864e-10
-2.81087e-10
-5.92374e-11
-2.93062e-10
-1.36399e-11
-2.97713e-10
3.14405e-11
-2.94759e-10
7.454e-11
-2.84307e-10
1.14318e-10
-2.66867e-10
1.49645e-10
-2.43302e-10
1.79653e-10
-2.14728e-10
2.03768e-10
-1.82434e-10
2.21714e-10
-1.47778e-10
2.33495e-10
-1.12098e-10
2.39352e-10
-7.66232e-11
2.3973e-10
-4.24457e-11
2.35178e-10
-1.04276e-11
2.2645e-10
1.85929e-11
2.14225e-10
4.42605e-11
1.99251e-10
6.62388e-11
1.82244e-10
8.43933e-11
1.63879e-10
9.87363e-11
1.44758e-10
1.09408e-10
1.2542e-10
1.1663e-10
1.06316e-10
1.20699e-10
8.78255e-11
1.21953e-10
7.02492e-11
1.20752e-10
5.38146e-11
1.17466e-10
3.8685e-11
1.12453e-10
2.49906e-11
1.06037e-10
1.27374e-11
9.86008e-11
1.99305e-12
9.0384e-11
-7.29998e-12
8.16715e-11
-1.51495e-11
7.26613e-11
-2.163e-11
6.35736e-11
-2.68189e-11
5.45593e-11
-3.08009e-11
4.57553e-11
-3.36709e-11
3.72743e-11
-3.55193e-11
2.91956e-11
-3.64472e-11
2.15814e-11
-3.65438e-11
1.44724e-11
-3.58938e-11
7.90151e-12
-3.46034e-11
1.906e-12
-3.27314e-11
-3.52417e-12
-3.03647e-11
-8.38959e-12
-2.75665e-11
-1.26894e-11
-2.44099e-11
-1.64373e-11
-2.09472e-11
-1.96383e-11
-1.72367e-11
-2.22936e-11
-1.33409e-11
-2.4358e-11
-9.34085e-12
-2.56201e-11
-5.39558e-12
-2.54992e-11
-1.89138e-12
-2.2672e-11
-1.18657e-11
5.99652e-13
-1.17508e-12
1.7791e-12
-2.32277e-12
3.27913e-12
-2.51514e-12
4.87819e-12
-1.54652e-12
6.41736e-12
-3.89451e-14
7.80769e-12
1.8077e-12
8.99559e-12
4.02135e-12
9.93276e-12
6.65599e-12
1.05778e-11
9.73491e-12
1.0886e-11
1.32762e-11
1.08081e-11
1.72899e-11
1.02917e-11
2.17825e-11
9.28204e-12
2.67567e-11
7.7143e-12
3.22094e-11
5.52119e-12
3.81355e-11
2.64427e-12
4.45197e-11
-9.85078e-13
5.13377e-11
-5.45077e-12
5.85649e-11
-1.08141e-11
6.61459e-11
-1.71626e-11
7.4034e-11
-2.45671e-11
8.21483e-11
-3.30934e-11
9.03958e-11
-4.28008e-11
9.86637e-11
-5.37412e-11
1.0682e-10
-6.59518e-11
1.14709e-10
-7.94557e-11
1.22148e-10
-9.4253e-11
1.28929e-10
-1.10318e-10
1.34817e-10
-1.2759e-10
1.39552e-10
-1.45972e-10
1.42848e-10
-1.6532e-10
1.44394e-10
-1.85436e-10
1.4386e-10
-2.06065e-10
1.40905e-10
-2.2688e-10
1.3518e-10
-2.47482e-10
1.26343e-10
-2.6739e-10
1.14075e-10
-2.86041e-10
9.81006e-11
-3.02802e-10
7.8203e-11
-3.16944e-10
5.42551e-11
-3.27699e-10
2.62868e-11
-3.343e-10
-5.54373e-12
-3.35862e-10
-4.10064e-11
-3.31651e-10
-7.93406e-11
-3.21011e-10
-1.19745e-10
-3.0346e-10
-1.61116e-10
-2.78761e-10
-2.021e-10
-2.46991e-10
-2.4114e-10
-2.08593e-10
-2.76552e-10
-1.64401e-10
-3.06652e-10
-1.1563e-10
-3.29858e-10
-6.38278e-11
-3.44863e-10
-1.07705e-11
-3.50771e-10
4.16602e-11
-3.47189e-10
9.16188e-11
-3.34265e-10
1.37438e-10
-3.12686e-10
1.7772e-10
-2.83584e-10
2.11426e-10
-2.48435e-10
2.37919e-10
-2.08927e-10
2.56932e-10
-1.66791e-10
2.68559e-10
-1.23725e-10
2.73185e-10
-8.12496e-11
2.71426e-10
-4.06861e-11
2.64077e-10
-3.07826e-12
2.5202e-10
3.06515e-11
2.36164e-10
6.01173e-11
2.17418e-10
8.49847e-11
1.96646e-10
1.05164e-10
1.7464e-10
1.20744e-10
1.52097e-10
1.31949e-10
1.2962e-10
1.39106e-10
1.07711e-10
1.42609e-10
8.6769e-11
1.42894e-10
6.71033e-11
1.40418e-10
4.89407e-11
1.35631e-10
3.24418e-11
1.28952e-10
1.76445e-11
1.20834e-10
4.6245e-12
1.11622e-10
-6.65695e-12
1.01666e-10
-1.62223e-11