/*--------------------------------*- C++ -*----------------------------------*\
| =========                 |                                                 |
| \\      /  F ield         | OpenFOAM: The Open Source CFD Toolbox           |
|  \\    /   O peration     | Version:  2312                                  |
|   \\  /    A nd           | Website:  www.openfoam.com                      |
|    \\/     M anipulation  |                                                 |
\*---------------------------------------------------------------------------*/
FoamFile
{
    version     2.0;
    format      ascii;
    arch        "LSB;label=32;scalar=64";
    class       volScalarField;
    location    "0.4";
    object      p_rgh;
}
// * * * * * * * * * * * * * * * * * * * * * * * * * * * * * * * * * * * * * //

dimensions      [1 -1 -2 0 0 0 0];

internalField   nonuniform List<scalar> 
10000
(
0
7.91995e-06
2.07427e-05
4.06297e-05
6.78021e-05
0.000102425
0.000144649
0.00019461
0.000252457
0.000318458
0.000393074
0.000476944
0.000570766
0.000675206
0.000790858
0.000918306
0.00105819
0.00121125
0.00137833
0.0015603
0.00175808
0.00197255
0.00220451
0.00245467
0.00272364
0.00301201
0.00332043
0.00364959
0.00400017
0.00437261
0.00476707
0.00518334
0.00562095
0.00607924
0.00655745
0.00705461
0.00756943
0.00810022
0.00864488
0.00920093
0.00976563
0.010336
0.0109086
0.01148
0.0120464
0.0126038
0.0131482
0.0136758
0.0141826
0.014665
0.0151194
0.0155427
0.0159321
0.0162854
0.0166011
0.0168782
0.0171163
0.0173154
0.017476
0.0175992
0.0176864
0.0177392
0.0177594
0.0177494
0.0177116
0.0176488
0.017564
0.0174597
0.0173385
0.017203
0.0170551
0.0168971
0.0167314
0.0165597
0.0163843
0.0162066
0.0160281
0.0158505
0.0156746
0.0155015
0.0153322
0.0151678
0.0150091
0.0148567
0.014711
0.0145725
0.0144415
0.0143182
0.0142032
0.0140968
0.0139997
0.0139115
0.0138326
0.0137631
0.0137032
0.0136531
0.0136122
0.0135812
0.0135604
0.0135487
-4.65581e-06
2.01328e-06
1.48677e-05
3.45549e-05
6.14901e-05
9.59106e-05
0.000137959
0.000187714
0.000245299
0.000311015
0.000385376
0.000469041
0.00056268
0.00066689
0.000782224
0.000909261
0.00104868
0.00120127
0.00136791
0.0015495
0.00174694
0.00196109
0.00219271
0.00244247
0.00271099
0.00299888
0.00330686
0.0036357
0.00398609
0.00435844
0.00475284
0.00516907
0.00560667
0.00606507
0.00654359
0.00704127
0.00755683
0.00808852
0.00863422
0.00919151
0.00975765
0.0103297
0.0109043
0.0114778
0.0120465
0.0126063
0.0131533
0.0136835
0.0141931
0.0146781
0.015135
0.0155606
0.0159522
0.0163075
0.0166249
0.0169036
0.0171428
0.0173428
0.017504
0.0176274
0.0177146
0.017767
0.0177864
0.0177752
0.0177364
0.0176724
0.0175862
0.0174805
0.0173577
0.0172205
0.0170708
0.0169109
0.0167434
0.0165701
0.016393
0.0162137
0.0160337
0.0158546
0.0156771
0.0155026
0.0153321
0.0151664
0.0150066
0.0148531
0.0147066
0.0145669
0.0144351
0.0143113
0.0141957
0.0140886
0.0139908
0.013902
0.0138229
0.013753
0.0136927
0.0136422
0.0136015
0.0135705
0.0135494
0.0135379
-1.7197e-05
-1.07396e-05
2.03018e-06
2.15193e-05
4.81081e-05
8.21207e-05
0.000123694
0.000172896
0.000229878
0.000294985
0.000368753
0.000451799
0.000544712
0.000648029
0.000762292
0.000888144
0.00102635
0.00117778
0.00134331
0.00152384
0.00172022
0.00193327
0.00216373
0.00241231
0.00267965
0.00296649
0.0032736
0.00360177
0.00395166
0.00432368
0.00471793
0.00513422
0.00557222
0.00603146
0.0065113
0.00701081
0.00752866
0.00806309
0.00861201
0.00917302
0.00974349
0.0103204
0.0109004
0.0114797
0.0120545
0.0126207
0.0131742
0.0137108
0.0142266
0.0147176
0.01518
0.0156107
0.0160066
0.0163656
0.016686
0.0169668
0.0172074
0.0174079
0.0175688
0.0176911
0.0177763
0.0178261
0.0178427
0.0178283
0.017786
0.0177183
0.0176282
0.0175186
0.0173918
0.0172504
0.0170967
0.016933
0.0167618
0.0165851
0.0164047
0.0162225
0.0160396
0.0158575
0.0156775
0.0155006
0.015328
0.0151603
0.0149987
0.0148432
0.0146956
0.0145546
0.0144215
0.0142966
0.0141799
0.0140722
0.0139736
0.0138841
0.0138044
0.0137338
0.0136733
0.013622
0.0135808
0.0135499
0.0135287
0.0135173
-3.6598e-05
-3.01744e-05
-1.76268e-05
1.52258e-06
2.76425e-05
6.1049e-05
0.000101864
0.000150181
0.000206207
0.000270331
0.000343076
0.000424981
0.00051654
0.000618249
0.000730697
0.000854634
0.00099093
0.00114049
0.0013042
0.00148287
0.00167732
0.00188836
0.00211677
0.00236332
0.00262878
0.00291392
0.00321958
0.00354658
0.00389558
0.004267
0.00466101
0.00507754
0.00551639
0.0059772
0.00645941
0.00696209
0.00748388
0.00802306
0.00857759
0.00914513
0.00972306
0.0103083
0.0108974
0.0114864
0.0120714
0.0126481
0.0132121
0.0137593
0.0142852
0.0147857
0.015257
0.0156953
0.0160979
0.0164624
0.016787
0.0170705
0.0173124
0.0175127
0.0176721
0.0177917
0.0178732
0.0179184
0.0179296
0.0179095
0.017861
0.0177869
0.0176901
0.0175737
0.0174402
0.0172922
0.0171321
0.0169625
0.0167857
0.0166037
0.0164183
0.0162315
0.0160443
0.0158583
0.0156747
0.0154945
0.0153189
0.0151486
0.0149845
0.014827
0.0146769
0.0145345
0.0143999
0.0142738
0.014156
0.0140471
0.0139476
0.0138571
0.0137767
0.0137053
0.0136443
0.0135929
0.0135512
0.01352
0.0134985
0.013487
-6.23904e-05
-5.61774e-05
-4.39821e-05
-2.52713e-05
2.36873e-07
3.28071e-05
7.2579e-05
0.000119689
0.000174414
0.000237168
0.000308422
0.000388616
0.000478171
0.000577592
0.000687564
0.000808949
0.000942689
0.00108968
0.00125075
0.00142667
0.00161825
0.00182634
0.00205181
0.00229551
0.00255829
0.00284102
0.00314457
0.00346981
0.00381745
0.00418797
0.00458164
0.00499855
0.00543865
0.00590172
0.00638726
0.00689438
0.00742175
0.00796772
0.0085303
0.00910719
0.00969572
0.0102927
0.0108946
0.0114973
0.0120967
0.0126882
0.0132672
0.0138291
0.0143692
0.014883
0.0153664
0.0158156
0.0162272
0.016599
0.0169288
0.0172156
0.0174587
0.0176581
0.017815
0.0179304
0.0180062
0.0180445
0.0180479
0.0180193
0.0179616
0.0178781
0.0177718
0.0176459
0.0175029
0.0173457
0.0171769
0.0169991
0.0168145
0.0166253
0.0164333
0.0162403
0.0160476
0.0158567
0.0156684
0.0154841
0.0153047
0.015131
0.0149638
0.0148037
0.0146511
0.0145066
0.0143702
0.0142425
0.0141233
0.0140133
0.0139123
0.013821
0.0137394
0.0136673
0.0136055
0.0135536
0.0135117
0.0134799
0.0134583
0.0134464
-9.46671e-05
-8.87128e-05
-7.69144e-05
-5.87333e-05
-3.39872e-05
-2.50362e-06
3.59571e-05
8.15538e-05
0.000134632
0.000195597
0.000264843
0.000342721
0.000429636
0.000526153
0.000633065
0.000751305
0.000881815
0.00102545
0.00118297
0.00135517
0.0015429
0.00174711
0.00196873
0.00220871
0.00246796
0.00274745
0.00304814
0.00337097
0.00371672
0.00408598
0.00447915
0.0048965
0.00533815
0.00580404
0.00629378
0.00680656
0.00734114
0.00789593
0.008469
0.00905804
0.00966031
0.0102726
0.0108911
0.0115118
0.0121299
0.0127409
0.0133395
0.0139207
0.0144794
0.0150106
0.0155098
0.0159728
0.0163962
0.0167771
0.0171135
0.017404
0.0176481
0.0178462
0.0179993
0.0181088
0.0181767
0.0182055
0.0181982
0.018158
0.0180881
0.0179921
0.0178732
0.0177348
0.0175795
0.0174106
0.0172306
0.0170422
0.0168478
0.0166494
0.0164492
0.0162488
0.0160492
0.0158522
0.0156581
0.0154689
0.0152849
0.0151072
0.0149364
0.0147732
0.0146178
0.0144706
0.0143322
0.0142024
0.0140817
0.0139703
0.013868
0.0137756
0.0136928
0.01362
0.0135576
0.0135048
0.0134623
0.0134299
0.0134078
0.0133956
-0.000133403
-0.000127689
-0.000116276
-9.87429e-05
-7.49436e-05
-4.47051e-05
-7.82259e-06
3.59644e-05
8.70401e-05
0.000145752
0.00021243
0.000287384
0.000371068
0.000464125
0.000567417
0.000681874
0.000808386
0.000947757
0.00110077
0.00126826
0.00145119
0.00165056
0.00186738
0.00210266
0.00235744
0.00263277
0.00292977
0.00324945
0.0035927
0.00396024
0.00435263
0.00477033
0.0052137
0.00568284
0.00617752
0.00669709
0.00724042
0.00780599
0.00839192
0.00899594
0.00961526
0.0102466
0.0108859
0.011529
0.0121708
0.012806
0.0134292
0.0140347
0.0146168
0.0151699
0.015689
0.0161694
0.0166073
0.0169995
0.0173437
0.0176386
0.0178837
0.0180796
0.0182273
0.0183286
0.018386
0.0184025
0.0183813
0.0183262
0.0182408
0.018129
0.0179943
0.0178402
0.0176698
0.0174863
0.0172926
0.0170913
0.016885
0.0166758
0.0164655
0.016256
0.0160484
0.0158439
0.0156434
0.0154482
0.0152592
0.0150768
0.0149019
0.0147349
0.0145763
0.0144262
0.0142854
0.0141534
0.0140308
0.0139177
0.0138142
0.0137205
0.0136366
0.0135629
0.0134995
0.0134459
0.0134026
0.0133697
0.0133469
0.0133343
-0.000178455
-0.000172904
-0.000161901
-0.000145097
-0.000122387
-9.35984e-05
-5.85004e-05
-1.67861e-05
3.18956e-05
8.78509e-05
0.000151407
0.000222849
0.00030277
0.00039181
0.000490866
0.000600797
0.000722437
0.000856593
0.00100411
0.00116593
0.00134307
0.00153658
0.00174756
0.00197709
0.00222634
0.00249653
0.00278888
0.00310456
0.00344457
0.00380977
0.00420092
0.00461872
0.00506376
0.00553642
0.00603666
0.00656399
0.00711744
0.00769564
0.0082968
0.00891869
0.00955851
0.0102128
0.0108775
0.0115478
0.0122183
0.0128834
0.0135367
0.014172
0.0147828
0.0153629
0.0159064
0.0164081
0.0168637
0.0172696
0.0176231
0.017923
0.0181687
0.0183611
0.0185014
0.018592
0.018636
0.0186368
0.0185984
0.0185247
0.0184202
0.018289
0.0181349
0.0179618
0.0177731
0.0175723
0.0173623
0.0171457
0.0169254
0.0167033
0.0164816
0.0162613
0.0160443
0.0158311
0.0156233
0.0154214
0.0152266
0.0150391
0.0148598
0.0146887
0.0145265
0.0143731
0.0142295
0.014095
0.0139705
0.0138557
0.0137507
0.0136559
0.0135705
0.0134958
0.013431
0.0133766
0.0133324
0.013299
0.0132758
0.0132631
-0.000229416
-0.000224054
-0.000213474
-0.000197488
-0.000175982
-0.000148793
-0.000115683
-7.63542e-05
-3.04845e-05
2.22436e-05
8.21918e-05
0.000149514
0.000225197
0.000309563
0.000403674
0.000508231
0.000624065
0.000752044
0.000893102
0.00104825
0.00121855
0.00140511
0.00160909
0.00183171
0.00207429
0.0023382
0.00262484
0.00293548
0.00327129
0.00363332
0.00402255
0.00443998
0.0048865
0.00536274
0.00586893
0.00640479
0.00696959
0.00756217
0.00818092
0.00882364
0.00948755
0.010169
0.0108637
0.0115665
0.0122715
0.0129723
0.0136621
0.0143335
0.0149791
0.0155919
0.0161651
0.0166927
0.0171696
0.0175917
0.0179561
0.0182613
0.018507
0.0186942
0.0188248
0.0189018
0.0189289
0.0189103
0.0188506
0.0187544
0.0186267
0.0184719
0.0182947
0.018099
0.0178888
0.0176677
0.0174386
0.0172044
0.0169679
0.0167308
0.0164957
0.0162635
0.0160357
0.0158131
0.0155967
0.0153877
0.0151864
0.0149933
0.014809
0.0146337
0.0144676
0.0143108
0.0141643
0.0140274
0.0139007
0.0137841
0.0136771
0.0135808
0.0134943
0.0134182
0.0133525
0.0132972
0.0132525
0.0132183
0.0131944
0.0131811
-0.00028599
-0.000280759
-0.000270603
-0.000255483
-0.00023527
-0.000209822
-0.000178931
-0.000142322
-9.96842e-05
-5.06716e-05
5.10705e-06
6.80889e-05
0.000138984
0.000217689
0.000306142
0.000404418
0.000513511
0.000634357
0.000767963
0.000915377
0.0010777
0.0012561
0.00145184
0.00166628
0.0019009
0.00215725
0.00243687
0.00274121
0.00307162
0.00342939
0.00381581
0.00423217
0.00467971
0.00515935
0.00567162
0.00621656
0.00679377
0.0074024
0.00804105
0.00870763
0.00939927
0.0101123
0.010842
0.011583
0.0123288
0.0130723
0.0138055
0.0145202
0.0152078
0.01586
0.0164689
0.0170276
0.0175299
0.0179709
0.0183476
0.0186584
0.0189031
0.0190833
0.0192014
0.0192614
0.0192675
0.019225
0.0191392
0.0190158
0.0188602
0.0186776
0.018473
0.0182511
0.0180158
0.0177711
0.0175201
0.0172657
0.0170107
0.016757
0.0165068
0.0162612
0.0160214
0.0157884
0.0155627
0.0153465
0.0151379
0.0149388
0.0147491
0.0145693
0.0143992
0.0142393
0.0140895
0.01395
0.0138208
0.0137021
0.0135935
0.0134954
0.0134077
0.0133301
0.0132634
0.0132072
0.0131616
0.0131266
0.0131023
0.0130888
-0.000347455
-0.000342446
-0.000332818
-0.000318547
-0.000299731
-0.000276204
-0.000247807
-0.000214259
-0.000175225
-0.000130319
-7.9111e-05
-2.11474e-05
4.40896e-05
0.000117071
0.000198774
0.000289746
0.00039118
0.000503922
0.000629019
0.000767544
0.000920643
0.00108958
0.00127573
0.00148059
0.00170581
0.00195309
0.00222415
0.00252067
0.00284422
0.00319639
0.00357881
0.00399313
0.00444092
0.00492345
0.00544164
0.00599594
0.00658642
0.0072126
0.00787334
0.00856668
0.00928978
0.0100389
0.0108092
0.0115948
0.0123885
0.0131823
0.0139672
0.0147336
0.0154714
0.0161708
0.0168224
0.017418
0.0179502
0.0184134
0.018804
0.0191205
0.0193631
0.0195337
0.0196359
0.0196743
0.0196545
0.0195828
0.0194655
0.0193094
0.0191208
0.0189055
0.018669
0.0184166
0.0181524
0.0178807
0.0176048
0.0173278
0.0170521
0.01678
0.0165133
0.0162529
0.0160002
0.0157562
0.0155209
0.0152958
0.0150801
0.0148747
0.0146796
0.0144952
0.0143208
0.0141576
0.0140047
0.0138624
0.0137309
0.0136097
0.0134992
0.0133994
0.0133102
0.0132315
0.0131637
0.0131068
0.0130605
0.0130247
0.0129996
0.0129856
-0.000413283
-0.000408463
-0.000399417
-0.000386278
-0.000368847
-0.000347461
-0.000321875
-0.000291696
-0.000256575
-0.000216115
-0.000169904
-0.000117528
-5.85239e-05
7.6713e-06
8.18446e-05
0.000164825
0.000257626
0.000361215
0.000476669
0.000605066
0.000747608
0.000905689
0.00108078
0.00127451
0.00148867
0.00172516
0.0019859
0.0022728
0.00258774
0.00293265
0.00330954
0.00372045
0.00416731
0.00465184
0.00517542
0.00573908
0.00634338
0.00698829
0.00767306
0.00839599
0.00915437
0.00994451
0.0107613
0.0115984
0.012448
0.013301
0.0141471
0.0149749
0.0157725
0.0165283
0.017231
0.0178704
0.0184378
0.0189267
0.0193332
0.0196554
0.019894
0.0200518
0.0201334
0.0201448
0.0200931
0.0199857
0.0198307
0.0196357
0.0194081
0.0191546
0.0188812
0.0185937
0.0182967
0.0179944
0.0176906
0.0173883
0.01709
0.0167977
0.0165131
0.0162372
0.0159708
0.0157149
0.0154695
0.0152354
0.0150122
0.0148001
0.0145992
0.0144099
0.0142317
0.0140648
0.0139088
0.0137638
0.0136302
0.0135066
0.013394
0.0132928
0.0132021
0.0131222
0.0130535
0.0129954
0.0129481
0.0129117
0.0128861
0.0128714
-0.000482888
-0.000478246
-0.00046984
-0.000457913
-0.000442475
-0.000423059
-0.000400671
-0.000374101
-0.00034315
-0.000307476
-0.000266728
-0.000220532
-0.000168431
-0.000109816
-4.391e-05
3.0173e-05
0.000113406
0.000206796
0.000311406
0.000428388
0.000558936
0.00070469
0.000867132
0.00104801
0.00124929
0.00147303
0.00172141
0.00199662
0.00230088
0.0026365
0.0030059
0.00341153
0.00385579
0.00434094
0.00486896
0.00544148
0.00605968
0.00672413
0.00743458
0.00818981
0.00898735
0.00982348
0.0106931
0.0115895
0.012504
0.0134264
0.0143446
0.0152452
0.0161143
0.0169375
0.0177012
0.0183928
0.0190021
0.019521
0.0199451
0.0202724
0.0205044
0.0206449
0.0207001
0.0206778
0.0205868
0.0204363
0.0202362
0.0199951
0.0197216
0.0194235
0.0191077
0.01878
0.0184459
0.0181097
0.0177749
0.0174448
0.0171219
0.0168081
0.0165043
0.0162118
0.0159314
0.0156632
0.0154073
0.0151639
0.014933
0.0147143
0.0145081
0.014314
0.0141316
0.0139613
0.0138017
0.013654
0.0135173
0.0133923
0.0132781
0.0131748
0.013083
0.0130018
0.0129319
0.0128729
0.0128249
0.0127877
0.0127616
0.0127465
-0.000555656
-0.000551186
-0.000543523
-0.000532992
-0.000519655
-0.000503586
-0.000483767
-0.000460859
-0.000434322
-0.000403817
-0.000369032
-0.000329598
-0.000285029
-0.000234686
-0.000177794
-0.000113481
-4.0801e-05
4.1263e-05
0.000133829
0.000238166
0.000355033
0.000486966
0.000635041
0.000801193
0.000987543
0.00119638
0.00143011
0.00169124
0.00198237
0.0023062
0.00266559
0.00306352
0.00350298
0.00398682
0.00451771
0.00509798
0.00572958
0.00641385
0.00715126
0.00794117
0.00878158
0.00966893
0.0105983
0.0115624
0.012552
0.0135553
0.0145585
0.0155458
0.0165002
0.0174044
0.0182413
0.0189955
0.0196546
0.0202082
0.0206515
0.0209828
0.0212043
0.0213217
0.0213432
0.0212788
0.0211396
0.020937
0.0206826
0.0203869
0.0200599
0.0197103
0.0193458
0.0189727
0.018597
0.0182229
0.0178544
0.0174944
0.0171451
0.0168082
0.0164846
0.0161747
0.0158797
0.0155988
0.0153324
0.0150799
0.0148416
0.0146166
0.0144048
0.0142062
0.0140195
0.0138458
0.0136833
0.0135329
0.013394
0.0132664
0.0131506
0.0130458
0.0129524
0.0128703
0.0127993
0.0127393
0.0126905
0.0126528
0.0126258
0.0126102
-0.000630982
-0.000626705
-0.00061989
-0.00061089
-0.000599696
-0.000586198
-0.000570051
-0.000551181
-0.00052942
-0.00050452
-0.000476193
-0.000444051
-0.000407584
-0.000366157
-0.00031903
-0.000265369
-0.000204246
-0.000134636
-5.54084e-05
3.46773e-05
0.000136923
0.000253115
0.000384899
0.000534261
0.000703465
0.000894996
0.00111152
0.00135583
0.0016309
0.00193989
0.00228622
0.00267346
0.00310524
0.00358513
0.00411655
0.00470271
0.0053465
0.00605022
0.00681525
0.00764177
0.00852851
0.00947241
0.0104687
0.0115099
0.0125858
0.0136835
0.0147869
0.0158773
0.0169342
0.0179361
0.0188614
0.0196907
0.020409
0.0210028
0.0214669
0.0218
0.022006
0.0220926
0.022071
0.0219538
0.0217553
0.0214895
0.0211703
0.0208102
0.0204208
0.0200118
0.0195918
0.0191678
0.0187458
0.0183304
0.0179253
0.0175334
0.0171563
0.016795
0.0164506
0.0161235
0.0158134
0.0155202
0.0152435
0.0149823
0.0147364
0.0145053
0.0142884
0.0140852
0.0138952
0.0137177
0.0135526
0.0134
0.0132591
0.0131296
0.0130119
0.0129055
0.012811
0.0127277
0.0126556
0.0125948
0.0125451
0.0125067
0.0124792
0.0124629
-0.000708287
-0.00070424
-0.000698375
-0.000691024
-0.000682099
-0.000671455
-0.000658919
-0.000644401
-0.000627786
-0.00060891
-0.000587479
-0.000563093
-0.000535253
-0.000503372
-0.000466761
-0.000424618
-0.000376031
-0.000319978
-0.000255328
-0.000180821
-9.50362e-05
3.70045e-06
0.000117212
0.00024756
0.000397194
0.00056878
0.00076519
0.000989519
0.00124513
0.00153573
0.00186536
0.00223826
0.00265876
0.00313119
0.0036599
0.00424919
0.00490306
0.00562494
0.00641743
0.00728187
0.008218
0.00922354
0.010294
0.0114222
0.0125974
0.0138049
0.0150266
0.0162402
0.0174206
0.0185408
0.0195736
0.0204941
0.0212821
0.0219229
0.0224093
0.0227411
0.0229242
0.0229697
0.0228924
0.0227091
0.0224375
0.0220951
0.0216986
0.0212628
0.0208008
0.0203237
0.0198411
0.0193603
0.0188875
0.0184273
0.017983
0.017557
0.0171507
0.0167651
0.0163998
0.016055
0.0157305
0.0154252
0.0151384
0.0148692
0.0146166
0.0143797
0.0141586
0.0139512
0.013758
0.0135777
0.01341
0.0132552
0.0131121
0.0129808
0.0128615
0.0127538
0.0126581
0.0125738
0.0125007
0.0124392
0.0123888
0.0123494
0.0123212
0.0123045
-0.000787028
-0.000783251
-0.00077841
-0.000772773
-0.000766191
-0.000758543
-0.000749769
-0.000739851
-0.000728722
-0.000716213
-0.000702041
-0.000685818
-0.000667103
-0.000645375
-0.000619995
-0.000590192
-0.000555082
-0.00051368
-0.000464875
-0.000407408
-0.000339827
-0.000260449
-0.000167364
-5.83625e-05
6.90205e-05
0.000217731
0.000390767
0.000591525
0.000823837
0.00109201
0.00140071
0.00175487
0.00215958
0.00262009
0.00314185
0.00373038
0.004391
0.0051286
0.00594731
0.00684997
0.00783773
0.00890953
0.0100615
0.0112873
0.0125758
0.013911
0.0152723
0.0166333
0.0179633
0.0192279
0.0203921
0.0214236
0.0222962
0.0229913
0.0235009
0.0238259
0.023976
0.0239664
0.0238174
0.0235509
0.0231893
0.0227545
0.0222658
0.021741
0.0211952
0.0206407
0.0200877
0.0195442
0.019016
0.0185075
0.0180218
0.0175604
0.017124
0.0167139
0.0163282
0.0159664
0.0156278
0.0153113
0.0150154
0.0147387
0.0144806
0.0142388
0.0140135
0.0138029
0.0136067
0.0134243
0.0132545
0.0130977
0.0129529
0.0128203
0.0126998
0.0125911
0.0124939
0.0124084
0.0123343
0.0122721
0.0122211
0.0121811
0.0121521
0.0121349
-0.000866676
-0.000863222
-0.000859422
-0.000855505
-0.000851306
-0.000846771
-0.00084194
-0.000836851
-0.000831453
-0.000825535
-0.000818916
-0.000811217
-0.000802087
-0.000791068
-0.000777567
-0.000760865
-0.000740143
-0.000714481
-0.000682818
-0.000643911
-0.000596305
-0.000538296
-0.000467904
-0.000382837
-0.000280493
-0.000157929
-1.18974e-05
0.000161342
0.000366115
0.000607291
0.00089016
0.00122034
0.00160379
0.00204684
0.00255616
0.00313866
0.00380129
0.00455069
0.00539287
0.00633257
0.0073728
0.00851433
0.00975474
0.011089
0.0125061
0.0139893
0.0155155
0.0170536
0.0185656
0.0200078
0.0213345
0.0225029
0.023478
0.0242364
0.024769
0.025079
0.0251813
0.0250982
0.0248565
0.0244854
0.0240127
0.0234657
0.0228679
0.0222395
0.0215973
0.0209553
0.0203242
0.0197118
0.019124
0.0185643
0.0180354
0.0175378
0.0170712
0.0166383
0.0162322
0.0158547
0.0155035
0.0151769
0.014873
0.0145901
0.014327
0.0140819
0.0138536
0.0136406
0.0134421
0.0132578
0.0130868
0.0129284
0.0127818
0.0126477
0.0125261
0.0124164
0.0123182
0.0122317
0.0121569
0.0120937
0.0120419
0.0120013
0.0119716
0.0119539
-0.000946688
-0.000943588
-0.0009408
-0.000938571
-0.00093678
-0.000935459
-0.000934711
-0.000934594
-0.000935056
-0.000935962
-0.000937043
-0.000938168
-0.000939017
-0.000939187
-0.000938143
-0.000935253
-0.000929802
-0.000920963
-0.000907745
-0.000888944
-0.000863111
-0.000828527
-0.000783177
-0.000724737
-0.000650564
-0.000557643
-0.000442496
-0.00030103
-0.000128465
8.05666e-05
0.000331929
0.000631989
0.000987662
0.00140643
0.00189634
0.00246595
0.0031241
0.0038795
0.00474032
0.00571374
0.00680539
0.0080187
0.00935396
0.0108065
0.0123681
0.0140221
0.0157427
0.0174941
0.0192294
0.0208923
0.0224224
0.0237614
0.0248621
0.0256941
0.0262475
0.0265299
0.0265639
0.0263819
0.0260202
0.025517
0.0249075
0.0242258
0.0234987
0.02275
0.0219981
0.0212582
0.0205409
0.0198539
0.0192027
0.01859
0.0180169
0.0174834
0.0169885
0.016531
0.0161074
0.015716
0.0153542
0.0150196
0.0147094
0.0144223
0.0141558
0.0139083
0.0136781
0.0134632
0.0132635
0.0130776
0.012905
0.0127457
0.0125983
0.0124633
0.0123409
0.01223
0.012131
0.0120433
0.0119677
0.0119039
0.0118514
0.0118103
0.0117802
0.0117619
-0.00102644
-0.00102369
-0.00102185
-0.00102127
-0.00102191
-0.00102385
-0.00102724
-0.00103213
-0.00103848
-0.00104622
-0.00105525
-0.00106543
-0.00107658
-0.00108834
-0.00110028
-0.00111187
-0.00112254
-0.00113158
-0.00113808
-0.00114089
-0.00113859
-0.0011295
-0.0011116
-0.0010826
-0.00103986
-0.000980253
-0.00090008
-0.000794957
-0.000659774
-0.000488709
-0.000275316
-1.24829e-05
0.000307682
0.000693919
0.00115583
0.00170383
0.00234885
0.00310196
0.00397396
0.00497508
0.00611429
0.00739862
0.00883174
0.0104125
0.0121348
0.0139839
0.0159333
0.0179421
0.019953
0.0218936
0.0236815
0.0252365
0.0264926
0.0274101
0.0279788
0.0282141
0.0281508
0.0278355
0.027318
0.0266484
0.0258721
0.0250277
0.0241486
0.0232611
0.0223854
0.0215368
0.0207258
0.0199596
0.019242
0.0185749
0.0179577
0.0173893
0.0168674
0.0163885
0.0159495
0.0155465
0.0151766
0.0148368
0.014523
0.0142333
0.013965
0.0137164
0.0134856
0.0132702
0.0130699
0.0128838
0.0127108
0.0125507
0.0124027
0.0122669
0.0121436
0.0120317
0.0119317
0.0118436
0.0117672
0.0117024
0.0116492
0.0116074
0.0115769
0.0115583
-0.00110519
-0.00110274
-0.0011018
-0.00110284
-0.00110589
-0.00111109
-0.00111858
-0.00112842
-0.00114064
-0.00115526
-0.00117231
-0.00119174
-0.00121342
-0.0012371
-0.00126247
-0.00128917
-0.00131675
-0.00134463
-0.00137201
-0.00139784
-0.00142076
-0.00143917
-0.00145115
-0.00145446
-0.00144645
-0.00142393
-0.00138304
-0.00131921
-0.00122708
-0.00110047
-0.000932354
-0.0007149
-0.000439244
-9.52958e-05
0.000328242
0.000843715
0.00146435
0.00220393
0.00307646
0.00409582
0.00527512
0.00662591
0.00815693
0.00987238
0.0117697
0.0138392
0.0160556
0.0183749
0.0207286
0.0230224
0.0251431
0.0269761
0.028427
0.0294433
0.0300159
0.0301739
0.0299716
0.0294762
0.0287566
0.0278774
0.0268961
0.0258585
0.0248025
0.0237566
0.0227424
0.021775
0.0208636
0.0200143
0.0192291
0.0185078
0.0178485
0.0172479
0.0167017
0.0162054
0.0157544
0.0153439
0.0149693
0.0146267
0.014312
0.0140224
0.0137547
0.0135067
0.0132765
0.0130619
0.0128623
0.012676
0.0125031
0.012343
0.0121948
0.0120587
0.0119345
0.011822
0.0117211
0.0116322
0.0115552
0.0114897
0.0114358
0.0113932
0.011362
0.0113427
-0.00118212
-0.00117991
-0.0011798
-0.00118243
-0.00118787
-0.00119625
-0.00120774
-0.00122243
-0.00124046
-0.00126196
-0.00128705
-0.0013158
-0.00134816
-0.00138402
-0.00142321
-0.00146552
-0.00151067
-0.00155822
-0.00160749
-0.00165757
-0.00170727
-0.00175513
-0.00179937
-0.00183781
-0.00186783
-0.00188623
-0.00188916
-0.00187193
-0.001829
-0.00175389
-0.00163919
-0.00147632
-0.00125542
-0.000965077
-0.000592308
-0.000122745
0.000459333
0.00117083
0.0020294
0.00305313
0.00426007
0.00566749
0.00729087
0.00914164
0.0112247
0.0135375
0.0160619
0.0187542
0.0215359
0.0242853
0.0268436
0.0290419
0.0307409
0.0318698
0.0324246
0.0324586
0.0320576
0.0313189
0.030337
0.0291952
0.0279649
0.0266986
0.0254383
0.0242141
0.0230475
0.0219521
0.0209355
0.0200012
0.019149
0.0183759
0.0176785
0.01705
0.0164845
0.0159761
0.0155179
0.0151039
0.014729
0.0143877
0.0140754
0.0137886
0.0135236
0.0132784
0.0130505
0.0128379
0.01264
0.0124553
0.012283
0.0121228
0.0119747
0.0118385
0.0117135
0.0116005
0.0114991
0.0114094
0.0113316
0.0112653
0.0112105
0.0111673
0.0111356
0.0111157
-0.00125638
-0.00125435
-0.00125507
-0.00125926
-0.001267
-0.00127844
-0.00129377
-0.00131318
-0.00133691
-0.00136521
-0.0013983
-0.00143636
-0.00147946
-0.00152758
-0.00158084
-0.00163913
-0.00170233
-0.00177015
-0.00184214
-0.00191756
-0.00199548
-0.00207462
-0.00215336
-0.00222964
-0.00230094
-0.00236419
-0.00241562
-0.00245054
-0.00246329
-0.00244726
-0.00239473
-0.00229655
-0.00214186
-0.00191807
-0.00161064
-0.00120304
-0.000676816
-1.17895e-05
0.000813676
0.00182244
0.00303831
0.00448535
0.00618712
0.00816492
0.0104358
0.0130081
0.0158795
0.0190152
0.0223326
0.0256779
0.0288243
0.0315142
0.0335345
0.0347883
0.0352858
0.0351237
0.0344383
0.0333708
0.0320498
0.0305834
0.0290519
0.0275177
0.0260251
0.0246036
0.0232726
0.0220429
0.0209192
0.019901
0.0189851
0.0181658
0.0174359
0.0167864
0.0162085
0.0156942
0.0152353
0.0148241
0.014454
0.0141184
0.0138123
0.0135318
0.0132723
0.0130322
0.0128087
0.0125995
0.012404
0.0122211
0.0120502
0.0118906
0.0117427
0.0116063
0.0114812
0.0113674
0.0112653
0.011175
0.0110962
0.011029
0.0109732
0.0109292
0.0108968
0.0108765
-0.00132722
-0.00132536
-0.00132689
-0.00133258
-0.00134251
-0.00135685
-0.00137585
-0.00139981
-0.00142907
-0.00146398
-0.00150489
-0.00155211
-0.00160586
-0.00166632
-0.00173353
-0.00180796
-0.00188946
-0.001978
-0.00207334
-0.00217507
-0.00228249
-0.00239458
-0.00250987
-0.00262653
-0.00274228
-0.00285426
-0.00295885
-0.00305147
-0.00312657
-0.00317753
-0.00319641
-0.00317367
-0.00309782
-0.00295521
-0.00272979
-0.00240292
-0.0019534
-0.00135768
-0.00058983
0.000378277
0.00157667
0.00303691
0.00479184
0.00687555
0.00932119
0.0121548
0.0153996
0.0190501
0.0230346
0.0271685
0.0311256
0.0344972
0.0369424
0.038327
0.0386963
0.0382262
0.0371338
0.0356236
0.0338655
0.0320009
0.0301135
0.0282723
0.0265209
0.0248862
0.0233828
0.0220167
0.0207882
0.0196912
0.0187182
0.0178629
0.0171086
0.016447
0.0158663
0.0153553
0.0149037
0.0145022
0.014143
0.0138186
0.0135231
0.0132522
0.0130016
0.0127689
0.0125513
0.0123468
0.0121549
0.0119747
0.0118053
0.0116468
0.0114996
0.0113629
0.0112375
0.0111234
0.0110203
0.010929
0.010849
0.0107807
0.0107241
0.0106795
0.0106465
0.0106257
-0.00139404
-0.00139236
-0.00139467
-0.00140177
-0.00141374
-0.00143079
-0.00145325
-0.0014815
-0.00151599
-0.00155719
-0.0016056
-0.00166165
-0.00172574
-0.00179823
-0.00187954
-0.00196979
-0.00206962
-0.00217911
-0.00229832
-0.00242714
-0.00256516
-0.00271158
-0.00286522
-0.00302458
-0.00318772
-0.00335207
-0.00351425
-0.00367001
-0.00381406
-0.00393996
-0.00403978
-0.00410387
-0.00412042
-0.00407504
-0.00395033
-0.00372578
-0.00337766
-0.00287893
-0.00219918
-0.00130482
-0.000159427
0.00127613
0.00304433
0.00519247
0.00777326
0.0108444
0.0144579
0.0186787
0.0234792
0.028666
0.0337724
0.0381224
0.0411441
0.0426498
0.0427655
0.0418131
0.0401407
0.0380418
0.035744
0.0333883
0.031086
0.0289009
0.0268698
0.0250119
0.0233346
0.0218366
0.0205113
0.0193468
0.0183301
0.0174476
0.0166836
0.016023
0.0154511
0.014954
0.014519
0.0141358
0.0137947
0.0134876
0.0132081
0.0129507
0.0127121
0.0124897
0.0122792
0.0120808
0.0118933
0.0117165
0.0115494
0.0113922
0.0112454
0.0111087
0.0109828
0.0108676
0.0107636
0.0106708
0.0105897
0.0105204
0.0104629
0.0104174
0.0103838
0.0103627
-0.00145635
-0.00145487
-0.0014579
-0.00146628
-0.0014801
-0.00149963
-0.00152525
-0.00155741
-0.00159669
-0.0016437
-0.00169908
-0.00176344
-0.00183735
-0.00192139
-0.00201616
-0.00212225
-0.00224022
-0.00237075
-0.00251414
-0.00267059
-0.00283995
-0.00302175
-0.00321521
-0.00341925
-0.00363234
-0.00385227
-0.00407612
-0.00430009
-0.00451938
-0.00472796
-0.0049183
-0.00508098
-0.00520419
-0.00527315
-0.00526972
-0.00517194
-0.00495376
-0.00458473
-0.00402998
-0.00325051
-0.00220361
-0.000843313
0.000880696
0.00302645
0.00566705
0.00889406
0.0128149
0.0176038
0.0233538
0.0299419
0.0367194
0.0425403
0.0463707
0.0479552
0.0475979
0.0458961
0.0434041
0.0405243
0.0375597
0.03464
0.0318748
0.0293196
0.026999
0.0249189
0.0230753
0.0214582
0.0200539
0.0188389
0.0177964
0.016906
0.0161484
0.0155046
0.0149563
0.0144863
0.0140803
0.0137249
0.0134101
0.013127
0.0128686
0.0126295
0.0124055
0.0121936
0.0119941
0.0118033
0.0116213
0.0114481
0.0112832
0.0111274
0.0109808
0.0108438
0.010717
0.0106005
0.0104951
0.0104009
0.0103184
0.0102478
0.0101894
0.0101431
0.010109
0.0100875
-0.00151373
-0.00151245
-0.00151611
-0.0015256
-0.00154105
-0.00156273
-0.00159108
-0.00162665
-0.00167012
-0.00172228
-0.00178395
-0.00185591
-0.00193894
-0.00203386
-0.00214152
-0.00226284
-0.00239874
-0.00255004
-0.00271759
-0.00290179
-0.00310284
-0.00332068
-0.00355501
-0.00380524
-0.0040703
-0.00434854
-0.0046376
-0.00493432
-0.00523459
-0.00553315
-0.00582324
-0.00609608
-0.00634031
-0.00654149
-0.00668142
-0.00673737
-0.00668138
-0.00647991
-0.0060938
-0.00547866
-0.00458594
-0.00336482
-0.00176162
0.000284932
0.00285813
0.00608252
0.0101516
0.0153301
0.0220484
0.0304583
0.0397408
0.0479027
0.0529063
0.0544525
0.0532445
0.0503972
0.0467848
0.0429593
0.0391694
0.0356097
0.0323518
0.0294204
0.026818
0.0245323
0.0225433
0.0208293
0.0193786
0.0181389
0.0170929
0.0162184
0.0154901
0.0148838
0.0143772
0.0139501
0.0135861
0.0132705
0.0129911
0.0127395
0.0125078
0.0122911
0.0120854
0.0118886
0.0116994
0.0115165
0.0113403
0.0111709
0.0110081
0.0108531
0.0107062
0.0105685
0.0104403
0.0103222
0.0102148
0.0101189
0.0100348
0.00996291
0.00990338
0.00985615
0.00982135
0.00979956
-0.00156582
-0.00156468
-0.00156885
-0.00157925
-0.001596
-0.0016194
-0.00164994
-0.00168828
-0.00173523
-0.00179176
-0.00185887
-0.00193756
-0.00202882
-0.00213374
-0.00225347
-0.00238925
-0.00254236
-0.00271397
-0.00290506
-0.00311665
-0.00334931
-0.00360341
-0.00387918