/*--------------------------------*- C++ -*----------------------------------*\
| =========                 |                                                 |
| \\      /  F ield         | OpenFOAM: The Open Source CFD Toolbox           |
|  \\    /   O peration     | Version:  2312                                  |
|   \\  /    A nd           | Website:  www.openfoam.com                      |
|    \\/     M anipulation  |                                                 |
\*---------------------------------------------------------------------------*/
FoamFile
{
    version     2.0;
    format      ascii;
    arch        "LSB;label=32;scalar=64";
    class       surfaceScalarField;
    location    "0.4";
    object      phi;
}
// * * * * * * * * * * * * * * * * * * * * * * * * * * * * * * * * * * * * * //

dimensions      [0 3 -1 0 0 0 0];

oriented        oriented;

internalField   nonuniform List<scalar> 
19800
(
-2.14118e-13
2.31346e-13
-9.47932e-13
7.34241e-13
-1.93015e-12
9.8272e-13
-2.79066e-12
8.60257e-13
-3.45242e-12
6.604e-13
-4.0043e-12
5.49732e-13
-4.56396e-12
5.57609e-13
-5.21283e-12
6.47812e-13
-5.99729e-12
7.84632e-13
-6.94412e-12
9.47539e-13
-8.07114e-12
1.12721e-12
-9.39192e-12
1.31984e-12
-1.09181e-11
1.52437e-12
-1.26609e-11
1.74111e-12
-1.46317e-11
1.96964e-12
-1.68413e-11
2.20909e-12
-1.92996e-11
2.45797e-12
-2.20145e-11
2.71416e-12
-2.49912e-11
2.97546e-12
-2.82317e-11
3.23897e-12
-3.17344e-11
3.50106e-12
-3.54934e-11
3.75712e-12
-3.94971e-11
4.00185e-12
-4.37283e-11
4.22942e-12
-4.8163e-11
4.43334e-12
-5.27703e-11
4.60627e-12
-5.75119e-11
4.74025e-12
-6.2341e-11
4.82695e-12
-6.72022e-11
4.85794e-12
-7.20308e-11
4.825e-12
-7.67541e-11
4.72017e-12
-8.12919e-11
4.53594e-12
-8.55582e-11
4.26554e-12
-8.94601e-11
3.90175e-12
-9.29001e-11
3.43976e-12
-9.57786e-11
2.87779e-12
-9.79929e-11
2.21346e-12
-9.9443e-11
1.44955e-12
-1.00037e-10
5.94286e-13
-9.96878e-11
-3.48824e-13
-9.8325e-11
-1.36184e-12
-9.58938e-11
-2.43042e-12
-9.23601e-11
-3.53327e-12
-8.7714e-11
-4.64578e-12
-8.19745e-11
-5.73906e-12
-7.51862e-11
-6.78729e-12
-6.74277e-11
-7.75746e-12
-5.88073e-11
-8.62002e-12
-4.94609e-11
-9.34674e-12
-3.95488e-11
-9.91254e-12
-2.92517e-11
-1.02971e-11
-1.87645e-11
-1.04863e-11
-8.28999e-12
-1.0473e-11
1.96871e-12
-1.02576e-11
1.18137e-11
-9.84456e-12
2.1069e-11
-9.25569e-12
2.95894e-11
-8.52136e-12
3.72286e-11
-7.63974e-12
4.38824e-11
-6.65474e-12
4.94789e-11
-5.59752e-12
5.39779e-11
-4.49905e-12
5.73689e-11
-3.38954e-12
5.96692e-11
-2.29747e-12
6.09223e-11
-1.24985e-12
6.11906e-11
-2.65555e-13
6.05545e-11
6.36763e-13
5.91144e-11
1.44018e-12
5.69747e-11
2.13982e-12
5.42438e-11
2.72998e-12
5.10348e-11
3.20901e-12
4.74562e-11
3.57886e-12
4.36124e-11
3.84421e-12
3.96028e-11
4.00999e-12
3.55158e-11
4.08485e-12
3.14344e-11
4.07996e-12
2.74281e-11
4.00577e-12
2.35555e-11
3.86997e-12
1.98687e-11
3.68634e-12
1.64058e-11
3.46203e-12
1.3199e-11
3.20693e-12
1.02735e-11
2.9244e-12
7.63269e-12
2.63759e-12
5.29702e-12
2.33452e-12
3.25882e-12
2.03474e-12
1.52206e-12
1.73623e-12
7.45277e-14
1.44844e-12
-1.09219e-12
1.1694e-12
-1.99264e-12
8.98365e-13
-2.63571e-12
6.42318e-13
-3.04459e-12
4.05213e-13
-3.22942e-12
1.82208e-13
-3.22114e-12
-1.14768e-14
-3.04397e-12
-1.80216e-13
-2.72228e-12
-3.22818e-13
-2.28574e-12
-4.37735e-13
-1.75706e-12
-5.24211e-13
-1.18178e-12
-5.79966e-13
-6.05753e-13
-5.80393e-13
-1.15997e-13
-4.9104e-13
-1.21977e-13
1.6455e-14
2.15013e-13
-5.97749e-13
1.34928e-12
-1.77511e-12
2.15975e-12
-3.12303e-12
2.20622e-12
-4.35663e-12
1.89082e-12
-5.4732e-12
1.66312e-12
-6.5848e-12
1.66734e-12
-7.80333e-12
1.86614e-12
-9.21125e-12
2.19308e-12
-1.0866e-11
2.60206e-12
-1.28086e-11
3.06805e-12
-1.50713e-11
3.57969e-12
-1.76819e-11
4.13232e-12
-2.06646e-11
4.72223e-12
-2.40424e-11
5.34691e-12
-2.78363e-11
6.00234e-12
-3.20635e-11
6.68382e-12
-3.67377e-11
7.38587e-12
-4.18669e-11
8.10162e-12
-4.74538e-11
8.82259e-12
-5.34943e-11
9.53825e-12
-5.99761e-11
1.02356e-11
-6.68773e-11
1.08999e-11
-7.4165e-11
1.15145e-11
-8.17949e-11
1.20609e-11
-8.97105e-11
1.25191e-11
-9.78415e-11
1.28675e-11
-1.06103e-10
1.30837e-11
-1.14396e-10
1.3145e-11
-1.22604e-10
1.30287e-11
-1.306e-10
1.27126e-11
-1.3824e-10
1.21756e-11
-1.45373e-10
1.13981e-11
-1.51836e-10
1.03643e-11
-1.57459e-10
9.06161e-12
-1.62067e-10
7.48459e-12
-1.65485e-10
5.63062e-12
-1.67547e-10
3.51241e-12
-1.68097e-10
1.14503e-12
-1.66993e-10
-1.45137e-12
-1.64118e-10
-4.23617e-12
-1.59391e-10
-7.15718e-12
-1.52765e-10
-1.01591e-11
-1.44237e-10
-1.31735e-11
-1.33852e-10
-1.61224e-11
-1.21704e-10
-1.89338e-11
-1.07944e-10
-2.15178e-11
-9.27688e-11
-2.37956e-11
-7.64256e-11
-2.56908e-11
-5.91996e-11
-2.71381e-11
-4.14102e-11
-2.80849e-11
-2.33974e-11
-2.84969e-11
-5.51032e-12
-2.83582e-11
1.19052e-11
-2.76727e-11
2.85224e-11
-2.64625e-11
4.40409e-11
-2.47751e-11
5.81871e-11
-2.2669e-11
7.07561e-11
-2.02097e-11
8.15792e-11
-1.74782e-11
9.05435e-11
-1.45614e-11
9.75926e-11
-1.15453e-11
1.02721e-10
-8.51328e-12
1.0597e-10
-5.54119e-12
1.0742e-10
-2.69872e-12
1.07199e-10
-4.32944e-14
1.05457e-10
2.37925e-12
1.02361e-10
4.53468e-12
9.81005e-11
6.40043e-12
9.28662e-11
7.96366e-12
8.68543e-11
9.22193e-12
8.02535e-11
1.01807e-11
7.32426e-11
1.08529e-11
6.59938e-11
1.12575e-11
5.86598e-11
1.14172e-11
5.13777e-11
1.13594e-11
4.42711e-11
1.11116e-11
3.74369e-11
1.07017e-11
3.0965e-11
1.01595e-11
2.4917e-11
9.50928e-12
1.93418e-11
8.77865e-12
1.42795e-11
7.98427e-12
9.75108e-12
7.16072e-12
5.76538e-12
6.31877e-12
2.32322e-12
5.47587e-12
-5.74833e-13
4.63664e-12
-2.9547e-12
3.82628e-12
-4.82872e-12
3.04292e-12
-6.22389e-12
2.29029e-12
-7.16823e-12
1.58322e-12
-7.692e-12
9.2304e-13
-7.82915e-12
3.1495e-13
-7.62376e-12
-2.21967e-13
-7.10929e-12
-6.96035e-13
-6.33375e-12
-1.0973e-12
-5.3449e-12
-1.42977e-12
-4.18955e-12
-1.6803e-12
-2.93218e-12
-1.83468e-12
-1.66377e-12
-1.84673e-12
-5.21335e-13
-1.62814e-12
-6.42439e-13
2.10801e-13
4.71061e-15
2.21611e-13
1.33999e-12
-3.55306e-13
2.73665e-12
-1.38383e-12
3.23291e-12
-2.59802e-12
3.10196e-12
-3.87013e-12
2.93237e-12
-5.20456e-12
3.00023e-12
-6.66202e-12
3.32336e-12
-8.31193e-12
3.84298e-12
-1.02161e-11
4.50533e-12
-1.24261e-11
5.27626e-12
-1.49853e-11
6.13714e-12
-1.7931e-11
7.07732e-12
-2.12972e-11
8.08871e-12
-2.51146e-11
9.16471e-12
-2.94097e-11
1.02966e-11
-3.42033e-11
1.14751e-11
-3.95116e-11
1.26909e-11
-4.53443e-11
1.39311e-11
-5.17044e-11
1.51796e-11
-5.85875e-11
1.64185e-11
-6.59796e-11
1.7625e-11
-7.38558e-11
1.87734e-11
-8.21787e-11
1.98354e-11
-9.08986e-11
2.07792e-11
-9.99516e-11
2.15703e-11
-1.09259e-10
2.21719e-11
-1.18724e-10
2.25453e-11
-1.28234e-10
2.26513e-11
-1.37658e-10
2.24504e-11
-1.4685e-10
2.19035e-11
-1.55648e-10
2.09737e-11
-1.63877e-10
1.96272e-11
-1.71349e-10
1.78363e-11
-1.77867e-10
1.55787e-11
-1.83228e-10
1.28449e-11
-1.87231e-10
9.63334e-12
-1.89678e-10
5.95952e-12
-1.90389e-10
1.85548e-12
-1.89195e-10
-2.64636e-12
-1.8596e-10
-7.47211e-12
-1.80584e-10
-1.25346e-11
-1.7301e-10
-1.77337e-11
-1.63232e-10
-2.2951e-11
-1.51299e-10
-2.80553e-11
-1.37329e-10
-3.29042e-11
-1.21488e-10
-3.736e-11
-1.0401e-10
-4.12743e-11
-8.51834e-11
-4.45177e-11
-6.53446e-11
-4.6976e-11
-4.48684e-11
-4.85593e-11
-2.4154e-11
-4.92096e-11
-3.61143e-12
-4.88997e-11
1.63545e-11
-4.76387e-11
3.53653e-11
-4.5474e-11
5.30674e-11
-4.24774e-11
6.91547e-11
-3.87565e-11
8.3381e-11
-3.44362e-11
9.55622e-11
-2.96586e-11
1.05574e-10
-2.45721e-11
1.13357e-10
-1.93271e-11
1.18914e-10
-1.40686e-11
1.22301e-10
-8.92762e-12
1.23624e-10
-4.02264e-12
1.23033e-10
5.47582e-13
1.20712e-10
4.70108e-12
1.16858e-10
8.38716e-12
1.11694e-10
1.15645e-11
1.05443e-10
1.42147e-11
9.83322e-11
1.63345e-11
9.05783e-11
1.79361e-11
8.2388e-11
1.9042e-11
7.39566e-11
1.96884e-11
6.54595e-11
1.9915e-11
5.70507e-11
1.97679e-11
4.88683e-11
1.92959e-11
4.10237e-11
1.85472e-11
3.36122e-11
1.75715e-11
2.67052e-11
1.64147e-11
2.03654e-11
1.51156e-11
1.46197e-11
1.37296e-11
9.5e-12
1.22782e-11
5.01708e-12
1.08014e-11
1.17993e-12
9.31212e-12
-2.0495e-12
7.86534e-12
-4.66777e-12
6.44279e-12
-6.70155e-12
5.07556e-12
-8.18603e-12
3.7725e-12
-9.15686e-12
2.55024e-12
-9.65102e-12
1.41592e-12
-9.71591e-12
3.77654e-13
-9.39063e-12
-5.51697e-13
-8.71632e-12
-1.36907e-12
-7.75153e-12
-2.06811e-12
-6.53191e-12
-2.64645e-12
-5.1246e-12
-3.09509e-12
-3.59515e-12
-3.37177e-12
-2.05027e-12
-3.39438e-12
-6.70681e-13
-3.01024e-12
-1.31812e-12
1.02999e-13
-9.7275e-14
3.08625e-13
1.13625e-12
2.21311e-13
2.82381e-12
-3.26331e-13
3.77841e-12
-1.22514e-12
3.9977e-12
-2.34999e-12
4.05472e-12
-3.64423e-12
4.2933e-12
-5.11647e-12
4.79528e-12
-6.80476e-12
5.53074e-12
-8.75886e-12
6.45822e-12
-1.10259e-11
7.54202e-12
-1.36513e-11
8.76245e-12
-1.66767e-11
1.01039e-11
-2.01408e-11
1.15542e-11
-2.40782e-11
1.31024e-11
-2.85187e-11
1.47352e-11
-3.34869e-11
1.64398e-11
-3.89996e-11
1.81999e-11
-4.50693e-11
1.99977e-11
-5.17018e-11
2.18098e-11
-5.88942e-11
2.36086e-11
-6.66337e-11
2.53621e-11
-7.48963e-11
2.7034e-11
-8.36457e-11
2.85835e-11
-9.28326e-11
2.99653e-11
-1.02393e-10
3.113e-11
-1.12248e-10
3.20247e-11
-1.22299e-10
3.25936e-11
-1.3243e-10
3.27799e-11
-1.42506e-10
3.25254e-11
-1.52375e-10
3.17728e-11
-1.61868e-10
3.04672e-11
-1.70799e-10
2.85583e-11
-1.78968e-10
2.60044e-11
-1.86163e-10
2.27734e-11
-1.92164e-10
1.88453e-11
-1.96751e-10
1.4219e-11
-1.99707e-10
8.91408e-12
-2.00823e-10
2.97045e-12
-1.99918e-10
-3.55421e-12
-1.96828e-10
-1.05639e-11
-1.91434e-10
-1.79293e-11
-1.83664e-10
-2.55041e-11
-1.735e-10
-3.31156e-11
-1.60988e-10
-4.05682e-11
-1.46237e-10
-4.76569e-11
-1.29433e-10
-5.41653e-11
-1.10822e-10
-5.98861e-11
-9.07184e-11
-6.46214e-11
-6.94921e-11
-6.82017e-11
-4.75569e-11
-7.04934e-11
-2.53558e-11
-7.14098e-11
-3.34305e-12
-7.0912e-11
1.80331e-11
-6.90149e-11
3.83492e-11
-6.57906e-11
5.72201e-11
-6.13479e-11
7.4313e-11
-5.58486e-11
8.93582e-11
-4.94811e-11
1.02158e-10
-4.24582e-11
1.12586e-10
-3.50007e-11
1.20589e-10
-2.73302e-11
1.26177e-10
-1.96588e-11
1.29427e-10
-1.21788e-11
1.30465e-10
-5.06117e-12
1.29467e-10
1.54539e-12
1.26636e-10
7.5337e-12
1.22196e-10
1.28262e-11
1.16394e-10
1.73677e-11
1.09475e-10
2.1135e-11
1.01684e-10
2.41269e-11
9.32559e-11
2.63642e-11
8.44131e-11
2.7885e-11
7.53622e-11
2.87411e-11
6.62857e-11
2.89932e-11
5.73455e-11
2.87089e-11
4.86839e-11
2.79594e-11
4.04158e-11
2.68171e-11
3.26365e-11
2.5351e-11
2.54203e-11
2.36287e-11
1.88225e-11
2.1714e-11
1.28757e-11
1.96753e-11
7.61067e-12
1.75427e-11
3.03451e-12
1.53778e-11
-8.76397e-13
1.32219e-11
-4.11187e-12
1.10967e-11
-6.7004e-12
9.03049e-12
-8.67937e-12
7.05206e-12
-1.00756e-11
5.17314e-12
-1.09387e-11
3.41179e-12
-1.13087e-11
1.78426e-12
-1.12315e-11
2.97992e-13
-1.07564e-11
-1.03275e-12
-9.9203e-12
-2.20209e-12
-8.78437e-12
-3.20936e-12
-7.38505e-12
-4.04438e-12
-5.7837e-12
-4.69491e-12
-4.05642e-12
-5.10313e-12
-2.31592e-12
-5.1364e-12
-7.66766e-13
-4.55744e-12
-2.08188e-12
-9.773e-14
1.79793e-15
4.41075e-15
1.03588e-12
1.08648e-13
2.71911e-12
-7.05336e-14
3.95548e-12
-6.04701e-13
4.52943e-12
-1.44078e-12
4.88919e-12
-2.52843e-12
5.38028e-12
-3.84896e-12
6.11527e-12
-5.4244e-12
7.1051e-12
-7.28604e-12
8.31866e-12
-9.47695e-12
9.73278e-12
-1.20381e-11
1.13251e-11
-1.50111e-11
1.30795e-11
-1.84372e-11
1.49819e-11
-2.23525e-11
1.70169e-11
-2.6789e-11
1.91687e-11
-3.17724e-11
2.14194e-11
-3.73247e-11
2.37493e-11
-4.34615e-11
2.61326e-11
-5.01917e-11
2.85387e-11
-5.75168e-11
3.0932e-11
-6.54273e-11
3.32709e-11
-7.39029e-11
3.55082e-11
-8.29108e-11
3.75909e-11
-9.24053e-11
3.94597e-11
-1.02326e-10
4.10498e-11
-1.12594e-10
4.22916e-11
-1.23114e-10
4.31116e-11
-1.33768e-10
4.34336e-11
-1.44423e-10
4.31796e-11
-1.54922e-10
4.22717e-11
-1.6509e-10
4.06349e-11
-1.74733e-10
3.82005e-11
-1.83638e-10
3.49091e-11
-1.9158e-10
3.07146e-11
-1.98322e-10
2.55861e-11
-2.03621e-10
1.95169e-11
-2.07236e-10
1.25266e-11
-2.08938e-10
4.67054e-12
-2.08508e-10
-3.98487e-12
-2.0576e-10
-1.33135e-11
-2.00546e-10
-2.31436e-11
-1.9277e-10
-3.32809e-11
-1.82395e-10
-4.3492e-11
-1.69451e-10
-5.35131e-11
-1.5405e-10
-6.30595e-11
-1.36372e-10
-7.18459e-11
-1.16688e-10
-7.95709e-11
-9.53374e-11
-8.5973e-11
-7.27284e-11
-9.0811e-11
-4.93191e-11
-9.39022e-11
-2.56051e-11
-9.51236e-11
-2.09471e-12
-9.44226e-11
2.07107e-11
-9.18204e-11
4.23359e-11
-8.74159e-11
6.23555e-11
-8.1367e-11
8.04027e-11
-7.38952e-11
9.61875e-11
-6.52666e-11
1.09498e-10
-5.57705e-11
1.20207e-10
-4.57106e-11
1.2827e-10
-3.53947e-11
1.33717e-10
-2.5107e-11
1.36645e-10
-1.51078e-11
1.37209e-10
-5.6247e-12
1.35615e-10
3.14007e-12
1.32096e-10
1.1053e-11
1.26911e-10
1.80112e-11
1.2033e-10
2.39499e-11
1.12625e-10
2.88409e-11
1.04062e-10
3.26907e-11
9.48955e-11
3.55312e-11
8.53608e-11
3.74201e-11
7.56753e-11
3.84286e-11
6.6028e-11
3.86411e-11
5.6588e-11
3.81498e-11
4.74952e-11
3.70527e-11
3.88663e-11
3.54455e-11
3.07966e-11
3.34231e-11
2.33545e-11
3.10695e-11
1.659e-11
2.84813e-11
1.05369e-11
2.5727e-11
5.21009e-12
2.2869e-11
6.10425e-13
1.99762e-11
-3.26372e-12
1.70958e-11
-6.43951e-12
1.42683e-11
-8.93971e-12
1.15343e-11
-1.08063e-11
8.91587e-12
-1.20701e-11
6.44013e-12
-1.27867e-11
4.12584e-12
-1.29967e-11
1.99312e-12
-1.27555e-11
5.38022e-14
-1.21025e-11
-1.68558e-12
-1.1091e-11
-3.21528e-12
-9.77065e-12
-4.53316e-12
-8.18701e-12
-5.63052e-12
-6.39804e-12
-6.4853e-12
-4.47867e-12
-7.02218e-12
-2.55442e-12
-7.06191e-12
-8.4966e-13
-6.26608e-12
-2.93132e-12
-2.06699e-13
2.09849e-13
-2.19693e-13
1.05028e-12
-5.55533e-14
2.55452e-12
-5.56281e-15
3.90413e-12
-2.34239e-13
4.75694e-12
-7.66058e-13
5.42047e-12
-1.57933e-12
6.19309e-12
-2.66963e-12
7.20445e-12
-4.04377e-12
8.47763e-12
-5.72875e-12
1.00027e-11
-7.75803e-12
1.1763e-11
-1.01752e-11
1.37449e-11
-1.30194e-11
1.59264e-11
-1.63317e-11
1.82949e-11
-2.01498e-11
2.08332e-11
-2.45077e-11
2.35234e-11
-2.94356e-11
2.63445e-11
-3.49585e-11
2.92708e-11
-4.10966e-11
3.22705e-11
-4.78652e-11
3.53071e-11
-5.52706e-11
3.83367e-11
-6.33086e-11
4.1308e-11
-7.19643e-11
4.41635e-11
-8.1211e-11
4.68376e-11
-9.10082e-11
4.92568e-11
-1.013e-10
5.13406e-11
-1.12011e-10
5.30019e-11
-1.23049e-10
5.41481e-11
-1.34298e-10
5.46821e-11
-1.45623e-10
5.45039e-11
-1.56865e-10
5.35131e-11
-1.67843e-10
5.16119e-11
-1.78353e-10
4.87092e-11
-1.88169e-10
4.4724e-11
-1.97048e-10
3.95933e-11
-2.04732e-10
3.32687e-11
-2.1095e-10
2.5734e-11
-2.15432e-10
1.70074e-11
-2.1791e-10
7.14823e-12
-2.1814e-10
-3.75515e-12
-2.15884e-10
-1.55688e-11
-2.10964e-10
-2.80643e-11
-2.03247e-10
-4.09984e-11
-1.92669e-10
-5.40717e-11
-1.79239e-10
-6.69444e-11
-1.63055e-10
-7.92453e-11
-1.44318e-10
-9.05856e-11
-1.23302e-10
-1.00589e-10
-1.00393e-10
-1.08883e-10
-7.60396e-11
-1.15165e-10
-5.07656e-11
-1.19176e-10
-2.51344e-11
-1.20755e-10
2.73087e-13
-1.19831e-10
2.48812e-11
-1.16429e-10
4.81514e-11
-1.10686e-10
6.95994e-11
-1.02816e-10
8.88165e-11
-9.31134e-11
1.05481e-10
-8.19329e-11
1.19369e-10
-6.96602e-11
1.3036e-10
-5.67019e-11
1.38417e-10
-4.34519e-11
1.43597e-10
-3.02864e-11
1.4603e-10
-1.75406e-11
1.45906e-10
-5.50041e-12
1.43481e-10
5.56534e-12
1.39024e-10
1.551e-11
1.32834e-10
2.4201e-11
1.25219e-10
3.15658e-11
1.16481e-10
3.75784e-11
1.06917e-10
4.22557e-11
9.68016e-11
4.56477e-11
8.6388e-11
4.78338e-11
7.59052e-11
4.89113e-11
6.55504e-11
4.89936e-11
5.54974e-11
4.82024e-11
4.58893e-11
4.66625e-11
3.68366e-11
4.44975e-11
2.84357e-11
4.18274e-11
2.07402e-11
3.87649e-11
1.3801e-11
3.54217e-11
7.64207e-12
3.18843e-11
2.26728e-12
2.82442e-11
-2.32619e-12
2.45665e-11
-6.14789e-12
2.09204e-11
-9.23413e-12
1.73539e-11
-1.16149e-11
1.39147e-11
-1.3333e-11
1.06343e-11
-1.44307e-11
7.53968e-12
-1.49651e-11
4.65861e-12
-1.49794e-11
2.01192e-12
-1.45358e-11
-3.93562e-13
-1.36696e-11
-2.54648e-12
-1.24457e-11
-4.44223e-12
-1.09077e-11
-6.07393e-12
-9.10456e-12
-7.43464e-12
-7.09759e-12
-8.49649e-12
-4.96053e-12
-9.16026e-12
-2.82543e-12
-9.19465e-12
-9.41345e-13
-8.14635e-12
-3.87329e-12
-2.00643e-13
4.11694e-13
-2.20652e-13
1.07148e-12
1.12905e-14
2.32261e-12
2.34859e-13
3.68034e-12
2.58194e-13
4.73364e-12
1.07859e-14
5.66782e-12
-5.21867e-13
6.72483e-12
-1.34597e-12
8.02664e-12
-2.47094e-12
9.60064e-12
-3.92712e-12
1.14584e-11
-5.74721e-12
1.35845e-11
-7.96462e-12
1.59648e-11
-1.06271e-11
1.85905e-11
-1.3775e-11
2.14424e-11
-1.74476e-11
2.45036e-11
-2.1682e-11
2.77554e-11
-2.65119e-11
3.11732e-11
-3.19681e-11
3.47273e-11
-3.80785e-11
3.83818e-11
-4.48633e-11
4.20924e-11
-5.23353e-11
4.58085e-11
-6.04976e-11
4.94701e-11
-6.93432e-11
5.30091e-11
-7.88528e-11
5.63471e-11
-8.89928e-11
5.93964e-11
-9.97134e-11
6.20602e-11
-1.10946e-10
6.42329e-11
-1.226e-10
6.58014e-11
-1.34565e-10
6.66458e-11
-1.46704e-10
6.66421e-11
-1.58856e-10
6.56644e-11
-1.70833e-10
6.35884e-11
-1.82421e-10
6.02962e-11
-1.93379e-10
5.56808e-11
-2.0344e-10
4.96537e-11
-2.1232e-10
4.21484e-11
-2.19717e-10
3.31315e-11
-2.25322e-10
2.26128e-11
-2.28819e-10
1.0647e-11
-2.29927e-10
-2.64671e-12
-2.28344e-10
-1.71512e-11
-2.23846e-10
-3.25625e-11
-2.16256e-10
-4.85898e-11
-2.05466e-10
-6.48628e-11
-1.9146e-10
-8.09529e-11
-1.74322e-10
-9.63851e-11
-1.54248e-10
-1.10663e-10
-1.3155e-10
-1.2329e-10
-1.06639e-10
-1.33794e-10
-8.00518e-11
-1.41752e-10
-5.23793e-11
-1.46849e-10
-2.42793e-11
-1.48856e-10
3.56736e-12
-1.47679e-10
3.04946e-11
-1.43357e-10
5.58694e-11
-1.36062e-10
7.91328e-11
-1.26081e-10
9.98203e-11
-1.13803e-10
1.17575e-10
-9.96888e-11
1.32161e-10
-8.42455e-11
1.43453e-10
-6.79924e-11
1.51441e-10
-5.14397e-11
1.56219e-10
-3.50631e-11
1.5796e-10
-1.9282e-11
1.56912e-10
-4.45317e-12
1.53378e-10
9.09846e-12
1.47687e-10
2.12002e-11
1.40188e-10
3.16992e-11
1.31237e-10
4.05182e-11
1.21178e-10
4.76389e-11
1.10338e-10
5.3095e-11
9.90244e-11
5.69626e-11
8.75074e-11
5.9349e-11
7.60317e-11
6.03853e-11
6.48048e-11
6.02182e-11
5.40023e-11
5.90032e-11
4.37654e-11
5.68992e-11
3.42064e-11
5.40588e-11
2.54102e-11
5.0627e-11
1.7421e-11
4.67539e-11
1.02848e-11
4.25575e-11
4.01083e-12
3.81561e-11
-1.40045e-12
3.36564e-11
-5.96591e-12
2.91326e-11
-9.71165e-12
2.46652e-11
-1.26723e-11
2.0316e-11
-1.48949e-11
1.61357e-11
-1.64208e-11
1.21638e-11
-1.73107e-11
8.43051e-12
-1.76144e-11
4.96348e-12
-1.73886e-11
1.78835e-12
-1.66913e-11
-1.09373e-12
-1.55705e-11
-3.66889e-12
-1.40835e-11
-5.93165e-12
-1.22814e-11
-7.87855e-12
-1.02142e-11
-9.50072e-12
-7.9419e-12
-1.07669e-11
-5.54413e-12
-1.15575e-11
-3.1591e-12
-1.1579e-11
-1.05792e-12
-1.02479e-11
-4.93177e-12
-1.1142e-13
5.24214e-13
-2.23419e-14
9.83495e-13
3.34279e-13
1.96655e-12
7.36893e-13
3.27833e-12
9.96401e-13
4.47462e-12
1.01961e-12
5.64429e-12
7.72598e-13
6.97023e-12
2.39832e-13
8.55701e-12
-6.09754e-13
1.04483e-11
-1.79752e-12
1.26458e-11
-3.3608e-12
1.5149e-11
-5.34104e-12
1.79465e-11
-7.77652e-12
2.10263e-11
-1.07161e-11
2.43808e-11
-1.42014e-11
2.79871e-11
-1.82724e-11
3.18254e-11
-2.29696e-11
3.58706e-11
-2.83305e-11
4.00894e-11
-3.43883e-11
4.44409e-11
-4.11727e-11
4.88774e-11
-4.87035e-11
5.33395e-11
-5.69938e-11
5.77603e-11
-6.60455e-11
6.20607e-11
-7.58485e-11
6.61499e-11
-8.63785e-11
6.99257e-11
-9.75938e-11
7.32745e-11
-1.09433e-10
7.60713e-11
-1.21814e-10
7.81807e-11
-1.34627e-10
7.94586e-11
-1.47739e-10
7.97538e-11
-1.60986e-10
7.89115e-11
-1.74175e-10
7.67768e-11
-1.87078e-10
7.3199e-11
-1.99438e-10
6.80397e-11
-2.10963e-10
6.11787e-11
-2.21337e-10
5.25234e-11
-2.30218e-10
4.20141e-11
-2.37246e-10
2.96423e-11
-2.42052e-10
1.5455e-11
-2.44318e-10
-3.80828e-13
-2.43631e-10
-1.78382e-11
-2.39729e-10
-3.64656e-11
-2.32365e-10
-5.59542e-11
-2.21379e-10
-7.58501e-11
-2.06713e-10
-9.56218e-11
-1.88425e-10
-1.14675e-10
-1.66715e-10
-1.32375e-10
-1.41914e-10
-1.4809e-10
-1.14505e-10
-1.61202e-10
-8.50884e-11
-1.71169e-10
-5.43749e-11
-1.77563e-10
-2.31418e-11
-1.8009e-10
7.80196e-12
-1.78625e-10
3.76609e-11
-1.73218e-10
6.5686e-11
-1.64089e-10
9.12235e-11
-1.51621e-10
1.13732e-10
-1.36313e-10
1.32816e-10
-1.18772e-10
1.48217e-10
-9.96445e-11
1.59823e-10
-7.95974e-11
1.67656e-10
-5.92729e-11
1.71858e-10
-3.92654e-11
1.72669e-10
-2.00942e-11
1.70398e-10
-2.18251e-12
1.65431e-10
1.40629e-11
1.58161e-10
2.84704e-11
1.49005e-10
4.08562e-11
1.38374e-10
5.11497e-11
1.26666e-10
5.93478e-11
1.1425e-10
6.55117e-11
1.01464e-10
6.97499e-11
8.86016e-11
7.22078e-11
7.59257e-11
7.30585e-11
6.36519e-11
7.24902e-11
5.19594e-11
7.06967e-11
4.09841e-11
6.78726e-11
3.08352e-11
6.42087e-11
2.15865e-11
5.98763e-11
1.32687e-11
5.50714e-11
5.92495e-12
4.9902e-11
-4.60413e-13
4.45443e-11
-5.89849e-12
3.90921e-11
-1.0411e-11
3.36484e-11
-1.40424e-11
2.82973e-11
-1.68376e-11
2.31131e-11
-1.88551e-11
1.815e-11
-2.01405e-11
1.34532e-11
-2.07668e-11
9.05172e-12
-2.07907e-11
4.98703e-12
-2.02696e-11
1.26472e-12
-1.92643e-11
-2.09725e-12
-1.78323e-11
-5.0983e-12
-1.60322e-11
-7.7314e-12
-1.39144e-11
-9.99254e-12
-1.15341e-11
-1.18798e-11
-8.9513e-12
-1.33527e-11
-6.24529e-12
-1.4267e-11
-3.56006e-12
-1.42646e-11
-1.20121e-12
-1.26096e-11
-6.1318e-12
2.65536e-14
4.98673e-13
3.03073e-13
7.07704e-13
8.55778e-13
1.41444e-12
1.47693e-12
2.65782e-12
1.99198e-12
3.9598e-12
2.30182e-12
5.33373e-12
2.35811e-12
6.91221e-12
2.12803e-12
8.78504e-12
1.58634e-12
1.09886e-11
6.99313e-13
1.35326e-11
-5.69082e-13
1.64178e-11
-2.26544e-12
1.96431e-11
-4.43431e-12
2.31946e-11
-7.12136e-12
2.70666e-11
-1.03739e-11
3.12385e-11
-1.42412e-11
3.56924e-11
-1.87677e-11
4.03978e-11
-2.39988e-11
4.53215e-11
-2.99772e-11
5.04201e-11
-3.67391e-11
5.56397e-11
-4.43164e-11
6.09168e-11
-5.27321e-11
6.61761e-11
-6.19998e-11
7.13284e-11
-7.21211e-11
7.6271e-11
-8.30827e-11
8.0887e-11
-9.48542e-11
8.50455e-11
-1.07384e-10
8.86009e-11
-1.20598e-10
9.13947e-11
-1.34395e-10
9.32558e-11
-1.48643e-10
9.40033e-11
-1.6318e-10
9.34491e-11
-1.77805e-10
9.14023e-11
-1.92281e-10
8.76747e-11
-2.0633e-10
8.20882e-11
-2.19634e-10
7.44829e-11
-2.31842e-10
6.47319e-11
-2.4256e-10
5.27345e-11
-2.51379e-10
3.84619e-11
-2.57867e-10
2.19429e-11
-2.61573e-10
3.32505e-12
-2.62094e-10
-1.73172e-11
-2.59025e-10
-3.95356e-11
-2.52043e-10
-6.29361e-11
-2.40915e-10
-8.69793e-11
-2.25521e-10
-1.11017e-10
-2.05886e-10
-1.3431e-10
-1.82199e-10
-1.56061e-10
-1.54832e-10
-1.75456e-10
-1.24327e-10
-1.91706e-10
-9.13929e-11
-2.04103e-10
-5.68767e-11
-2.1208e-10
-2.17165e-11
-2.15252e-10
1.31073e-11
-2.1345e-10
4.66295e-11
-2.06742e-10
7.79506e-11
-1.95411e-10
1.06289e-10
-1.79959e-10
1.31022e-10
-1.61045e-10
1.51689e-10
-1.39439e-10
1.6802e-10
-1.15975e-10
1.79923e-10
-9.15011e-11
1.87467e-10
-6.68186e-11
1.90861e-10
-4.26601e-11
1.90426e-10
-1.96602e-11
1.86585e-10
1.65812e-12
1.79785e-10
2.08617e-11
1.70526e-10
3.77293e-11
1.59303e-10
5.20805e-11
1.466e-10
6.38528e-11
1.32876e-10
7.30734e-11
1.18547e-10
7.98405e-11
1.0399e-10
8.43072e-11
8.95261e-11
8.66696e-11
7.54338e-11
8.71496e-11
6.19344e-11
8.59855e-11
4.92105e-11
8.34194e-11
3.7393e-11
7.96893e-11
2.65854e-11
7.50182e-11
1.68349e-11
6.96286e-11
8.18554e-12
6.37244e-11
6.09379e-13
5.74765e-11
-5.87622e-12
5.10301e-11
-1.13087e-11
4.45235e-11
-1.57315e-11
3.80725e-11
-1.92036e-11
3.17702e-11
-2.17815e-11
2.56931e-11
-2.35367e-11
1.98999e-11
-2.45275e-11
1.44456e-11
-2.48305e-11
9.35199e-12
-2.45064e-11
4.66666e-12
-2.36294e-11
3.89977e-13
-2.22648e-11
-3.46513e-12
-2.04653e-11
-6.8948e-12
-1.82963e-11
-9.89948e-12
-1.58158e-11
-1.24776e-11
-1.30714e-11
-1.46221e-11
-1.01281e-11
-1.62954e-11
-7.06547e-12
-1.73274e-11
-4.03774e-12
-1.7292e-11
-1.3709e-12
-1.52781e-11
-7.50261e-12
1.91e-13
3.08382e-13
7.18242e-13
1.80328e-13
1.52444e-12
6.08283e-13
2.41198e-12
1.7705e-12
3.2149e-12
3.15697e-12
3.838e-12
4.71024e-12
4.22409e-12
6.52527e-12
4.33588e-12
8.67228e-12
4.13742e-12
1.11864e-11
3.5898e-12
1.40798e-11
2.65064e-12
1.73568e-11
1.27961e-12
2.10137e-11
-5.7415e-13
2.50477e-11
-2.95994e-12
2.94516e-11
-5.9378e-12
3.42158e-11
-9.5532e-12
3.93076e-11
-1.38631e-11
4.47079e-11
-1.89236e-11
5.03824e-11
-2.47849e-11
5.62816e-11
-3.14946e-11
6.23494e-11
-3.90957e-11
6.8518e-11
-4.76244e-11
7.47049e-11
-5.71072e-11
8.08115e-11
-6.75605e-11
8.67247e-11
-7.89854e-11
9.23121e-11
-9.13651e-11
9.74253e-11
-1.04661e-10
1.01898e-10
-1.18811e-10
1.05546e-10
-1.33723e-10
1.0817e-10
-1.49273e-10
1.09555e-10
-1.65299e-10
1.09477e-10
-1.81599e-10
1.07703e-10
-1.97925e-10
1.04e-10
-2.13979e-10
9.81417e-11
-2.29416e-10
8.99197e-11
-2.43838e-10
7.91542e-11
-2.56809e-10
6.57056e-11
-2.67842e-10
4.94944e-11
-2.76424e-10
3.05244e-11
-2.82014e-10
8.91496e-12
-2.84112e-10
-1.52191e-11
-2.8219e-10
-4.14579e-11
-2.75817e-10
-6.9309e-11
-2.64655e-10
-9.81404e-11
-2.48503e-10
-1.27168e-10
-2.27328e-10
-1.55484e-10
-2.01302e-10
-1.82086e-10
-1.70829e-10
-2.05928e-10
-1.36532e-10
-2.26003e-10
-9.92503e-11
-2.41385e-10
-6.00119e-11
-2.5132e-10
-1.99669e-11
-2.55298e-10
1.96842e-11
-2.53101e-10
5.77495e-11
-2.44806e-10
9.31376e-11
-2.30798e-10
1.24905e-10
-2.11725e-10
1.52307e-10
-1.88447e-10
1.74829e-10
-1.61961e-10
1.92191e-10
-1.33337e-10
2.0433e-10
-1.03641e-10
2.11385e-10
-7.38739e-11
2.13659e-10
-4.4934e-11
2.11584e-10
-1.7585e-11
2.05711e-10
7.52916e-12
1.96601e-10
2.99722e-11
1.84861e-10
4.94683e-11
1.71091e-10
6.58499e-11
1.55863e-10
7.90819e-11
1.39706e-10
8.92322e-11
1.23093e-10
9.64539e-11
1.0644e-10
1.0096e-10
9.01001e-11
1.03007e-10
7.43641e-11
1.02884e-10
5.94616e-11
1.00886e-10
4.55717e-11
9.73085e-11
3.28227e-11
9.24404e-11
2.12951e-11
8.65489e-11
1.09961e-11
7.99277e-11
1.97849e-12
7.27404e-11
-5.78974e-12
6.52457e-11
-1.23386e-11
5.75797e-11
-1.77225e-11
4.99072e-11
-2.2005e-11
4.23522e-11
-2.52552e-11
3.50187e-11
-2.75534e-11
2.79896e-11
-2.8975e-11
2.13238e-11
-2.96002e-11
1.50711e-11
-2.95144e-11
9.26416e-12
-2.87808e-11
3.92955e-12
-2.74845e-11
-9.01954e-13
-2.56945e-11
-5.25519e-12
-2.34716e-11
-9.11704e-12
-2.08787e-11
-1.24886e-11
-1.79773e-11
-1.53767e-11
-1.48202e-11
-1.77785e-11
-1.1468e-11
-1.9647e-11
-8.0019e-12
-2.07931e-11
-4.58305e-12
-2.07155e-11
-1.5685e-12
-1.82971e-11
-9.07279e-12
3.74092e-13
-6.56479e-14
1.19211e-12
-6.38949e-13
2.30521e-12
-5.05426e-13
3.51073e-12
5.65093e-13
4.64347e-12
2.0249e-12
5.61385e-12
3.74069e-12
6.36454e-12
5.77519e-12
6.85076e-12
8.18621e-12
7.03291e-12
1.10039e-11
6.86884e-12
1.42435e-11
6.31384e-12
1.79114e-11
5.31608e-12
2.20112e-11
3.82039e-12
2.6543e-11
1.77874e-12
3.14928e-11
-8.59852e-13
3.68538e-11
-4.17043e-12
4.26176e-11
-8.21513e-12
4.87522e-11
-1.30502e-11
5.52171e-11
-1.87476e-11
6.19787e-11
-2.5362e-11
6.89637e-11
-3.29513e-11
7.61075e-11
-4.15666e-11
8.33207e-11
-5.12511e-11
9.04969e-11
-6.20367e-11
9.75109e-11
-7.39429e-11
1.04219e-10
-8.69696e-11
1.10453e-10
-1.01096e-10
1.16025e-10
-1.16275e-10
1.20726e-10
-1.32429e-10
1.24326e-10
-1.49443e-10
1.26572e-10
-1.67164e-10
1.27199e-10
-1.85387e-10
1.25927e-10
-2.03858e-10
1.2247e-10
-2.22262e-10
1.16545e-10
-2.40224e-10
1.0788e-10
-2.57303e-10
9.6232e-11
-2.73002e-10
8.14045e-11
-2.86756e-10
6.32478e-11
-2.97958e-10
4.17254e-11
-3.05949e-10
1.69061e-11
-3.10112e-10
-1.10552e-11
-3.09758e-10
-4.18108e-11
-3.04318e-10
-7.47484e-11
-2.93315e-10
-1.09143e-10
-2.76426e-10
-1.44058e-10
-2.53533e-10
-1.78376e-10
-2.24774e-10
-2.10844e-10
-1.90573e-10
-2.40128e-10
-1.5165e-10
-2.64924e-10
-1.09025e-10
-2.8401e-10
-6.3945e-11
-2.964e-10
-1.78352e-11
-3.01408e-10
2.78032e-11
-2.98738e-10
7.149e-11
-2.88491e-10
1.11868e-10
-2.71174e-10
1.47793e-10
-2.47649e-10
1.78382e-10
-2.19035e-10
2.03049e-10
-1.86629e-10
2.21509e-10
-1.51797e-10
2.33758e-10
-1.15889e-10
2.40033e-10
-8.01473e-11
2.40774e-10
-4.56741e-11
2.36533e-10
-1.33448e-11
2.28062e-10
1.5998e-11
2.16047e-10
4.19863e-11
2.01238e-10
6.42774e-11
1.84355e-10
8.27326e-11
1.66078e-10
9.73603e-11
1.47013e-10
1.08298e-10
1.27701e-10
1.15765e-10
1.086e-10
1.20059e-10
9.00936e-11
1.21514e-10
7.24821e-11
1.20493e-10
5.59992e-11
1.17368e-10
4.08141e-11
1.12496e-10
2.70531e-11
1.06202e-10
1.47264e-11
9.88728e-11
3.9085e-12
9.07487e-11
-5.46858e-12
8.21147e-11
-1.33971e-11
7.31737e-11
-1.99629e-11
6.41439e-11
-2.52367e-11
5.51812e-11
-2.93064e-11
4.64217e-11
-3.22582e-11
3.79774e-11
-3.41977e-11
2.99274e-11
-3.52102e-11
2.23407e-11
-3.53926e-11
1.52553e-11
-3.48311e-11
8.70534e-12
-3.36232e-11
2.72573e-12
-3.18384e-11
-2.68619e-12
-2.95581e-11
-7.53558e-12
-2.6845e-11
-1.18249e-11
-2.37737e-11
-1.55618e-11
-2.03989e-11
-1.87534e-11
-1.67767e-11
-2.14008e-11
-1.29663e-11
-2.34545e-11
-9.05213e-12
-2.47053e-11
-5.19648e-12
-2.457e-11
-1.79034e-12
-2.17032e-11
-1.08617e-11
5.6654e-13
-6.32926e-13
1.71345e-12
-1.78794e-12
3.18165e-12
-1.97441e-12
4.74781e-12
-1.00045e-12
6.25739e-12
5.17066e-13
7.61641e-12
2.38373e-12
8.76986e-12
4.62327e-12
9.66984e-12
7.28679e-12
1.02745e-11
1.03991e-11
1.0539e-11
1.39787e-11
1.04142e-11
1.80361e-11
9.84715e-12
2.25783e-11
8.78231e-12
2.7608e-11
7.15315e-12
3.31217e-11
4.89212e-12
3.91142e-11
1.93895e-12
4.55701e-11
-1.77478e-12
5.24652e-11
-6.33288e-12
5.97746e-11
-1.17978e-11
6.74432e-11
-1.82576e-11
7.54234e-11
-2.57843e-11
8.36347e-11
-3.44447e-11
9.1982e-11
-4.42995e-11
1.00352e-10
-5.54015e-11
1.08613e-10
-6.77892e-11
1.16607e-10
-8.14858e-11
1.2415e-10
-9.64913e-11
1.31032e-10
-1.12779e-10
1.37016e-10
-1.30291e-10
1.41839e-10
-1.48929e-10
1.45211e-10
-1.68548e-10
1.4682e-10
-1.88953e-10
1.46332e-10
-2.09884e-10
1.434e-10
-2.31013e-10
1.37673e-10
-2.51937e-10
1.28803e-10
-2.72172e-10
1.16467e-10
-2.91151e-10
1.00383e-10
-3.08232e-10
8.03298e-11
-3.22683e-10
5.61765e-11
-3.33725e-10
2.79485e-11
-3.40582e-10
-4.19726e-12
-3.42359e-10
-4.00323e-11
-3.38312e-10
-7.87955e-11
-3.27773e-10
-1.19682e-10
-3.10249e-10
-1.61582e-10
-2.85494e-10
-2.03132e-10
-2.53576e-10
-2.42761e-10
-2.14933e-10
-2.78769e-10
-1.70403e-10
-3.09453e-10
-1.21202e-10
-3.3321e-10
-6.88879e-11
-3.48713e-10
-1.52484e-11
-3.55046e-10
3.78177e-11
-3.51803e-10
8.84448e-11
-3.39117e-10
1.34946e-10
-3.17675e-10
1.75904e-10
-2.88606e-10
2.10264e-10
-2.53394e-10
2.37372e-10
-2.13735e-10
2.56951e-10
-1.71374e-10
2.69086e-10
-1.28023e-10
2.74159e-10
-8.52192e-11
2.72781e-10
-4.42975e-11
2.6575e-10
-6.31437e-12
2.53951e-10
2.77957e-11
2.38298e-10
5.76383e-11
2.19706e-10
8.28698e-11
1.99042e-10
1.03396e-10
1.77104e-10
1.19301e-10
1.54597e-10
1.30806e-10
1.32126e-10
1.38236e-10
1.10198e-10
1.41987e-10
8.92177e-11
1.42495e-10
6.94981e-11
1.40214e-10
5.12677e-11
1.35596e-10
3.46928e-11
1.29069e-10
1.98152e-11
1.2108e-10
6.70761e-12
1.11978e-10
-4.66181e-12
1.02118e-10
-1.43218e-11