/*--------------------------------*- C++ -*----------------------------------*\
| =========                 |                                                 |
| \\      /  F ield         | OpenFOAM: The Open Source CFD Toolbox           |
|  \\    /   O peration     | Version:  2312                                  |
|   \\  /    A nd           | Website:  www.openfoam.com                      |
|    \\/     M anipulation  |                                                 |
\*---------------------------------------------------------------------------*/
FoamFile
{
    version     2.0;
    format      ascii;
    arch        "LSB;label=32;scalar=64";
    class       volVectorField;
    location    "0.4";
    object      U;
}
// * * * * * * * * * * * * * * * * * * * * * * * * * * * * * * * * * * * * * //

dimensions      [0 1 -1 0 0 0 0];

internalField   nonuniform List<vector> 
10000
(
(4.13165e-08 8.23249e-08 0)
(-1.77592e-07 1.29984e-07 0)
(-5.83629e-07 1.27382e-07 0)
(-9.65487e-07 9.15988e-08 0)
(-1.26648e-06 6.30963e-08 0)
(-1.49936e-06 5.20807e-08 0)
(-1.71291e-06 5.71371e-08 0)
(-1.94896e-06 7.09885e-08 0)
(-2.23254e-06 8.88416e-08 0)
(-2.57715e-06 1.08607e-07 0)
(-2.99084e-06 1.29594e-07 0)
(-3.4795e-06 1.51572e-07 0)
(-4.04809e-06 1.74572e-07 0)
(-4.70117e-06 1.98849e-07 0)
(-5.4432e-06 2.24417e-07 0)
(-6.2786e-06 2.51188e-07 0)
(-7.21166e-06 2.7901e-07 0)
(-8.24595e-06 3.07639e-07 0)
(-9.38412e-06 3.36913e-07 0)
(-1.06276e-05 3.66555e-07 0)
(-1.19767e-05 3.96191e-07 0)
(-1.34297e-05 4.25342e-07 0)
(-1.49834e-05 4.53471e-07 0)
(-1.6632e-05 4.80011e-07 0)
(-1.83672e-05 5.04308e-07 0)
(-2.01781e-05 5.25572e-07 0)
(-2.2051e-05 5.42926e-07 0)
(-2.39687e-05 5.55455e-07 0)
(-2.5911e-05 5.62221e-07 0)
(-2.78536e-05 5.623e-07 0)
(-2.97691e-05 5.54772e-07 0)
(-3.16271e-05 5.38806e-07 0)
(-3.33939e-05 5.13623e-07 0)
(-3.50338e-05 4.78091e-07 0)
(-3.65088e-05 4.31581e-07 0)
(-3.77791e-05 3.73973e-07 0)
(-3.88036e-05 3.04499e-07 0)
(-3.95423e-05 2.23066e-07 0)
(-3.99573e-05 1.30783e-07 0)
(-4.00108e-05 2.87574e-08 0)
(-3.96711e-05 -8.38877e-08 0)
(-3.89141e-05 -2.04483e-07 0)
(-3.77214e-05 -3.30598e-07 0)
(-3.60847e-05 -4.59519e-07 0)
(-3.40043e-05 -5.87774e-07 0)
(-3.14929e-05 -7.13003e-07 0)
(-2.85766e-05 -8.31073e-07 0)
(-2.52921e-05 -9.38457e-07 0)
(-2.16887e-05 -1.0317e-06 0)
(-1.78255e-05 -1.10757e-06 0)
(-1.37713e-05 -1.1635e-06 0)
(-9.60175e-06 -1.19737e-06 0)
(-5.39687e-06 -1.208e-06 0)
(-1.23752e-06 -1.195e-06 0)
(2.79617e-06 -1.15782e-06 0)
(6.63271e-06 -1.10023e-06 0)
(1.01965e-05 -1.02739e-06 0)
(1.34291e-05 -9.33739e-07 0)
(1.62915e-05 -8.26681e-07 0)
(1.8744e-05 -7.10113e-07 0)
(2.07636e-05 -5.87429e-07 0)
(2.23404e-05 -4.62083e-07 0)
(2.34759e-05 -3.37409e-07 0)
(2.41823e-05 -2.16774e-07 0)
(2.44811e-05 -1.03327e-07 0)
(2.44013e-05 1.26162e-09 0)
(2.39791e-05 9.64343e-08 0)
(2.3256e-05 1.80153e-07 0)
(2.22745e-05 2.51711e-07 0)
(2.10794e-05 3.10853e-07 0)
(1.97149e-05 3.57743e-07 0)
(1.82239e-05 3.9284e-07 0)
(1.66473e-05 4.16483e-07 0)
(1.50225e-05 4.29577e-07 0)
(1.33832e-05 4.33641e-07 0)
(1.17612e-05 4.30073e-07 0)
(1.01817e-05 4.19003e-07 0)
(8.66696e-06 4.02783e-07 0)
(7.23516e-06 3.81408e-07 0)
(5.89953e-06 3.5616e-07 0)
(4.67046e-06 3.2701e-07 0)
(3.55698e-06 2.98655e-07 0)
(2.56271e-06 2.66844e-07 0)
(1.68778e-06 2.35649e-07 0)
(9.34283e-07 2.04229e-07 0)
(2.98647e-07 1.74117e-07 0)
(-2.23052e-07 1.4483e-07 0)
(-6.35303e-07 1.17092e-07 0)
(-9.42768e-07 9.10205e-08 0)
(-1.15187e-06 6.62455e-08 0)
(-1.26936e-06 4.38795e-08 0)
(-1.30333e-06 2.38044e-08 0)
(-1.26474e-06 5.81687e-09 0)
(-1.16328e-06 -8.89348e-09 0)
(-1.00974e-06 -2.05283e-08 0)
(-8.14261e-07 -2.91442e-08 0)
(-5.89765e-07 -3.49072e-08 0)
(-3.54162e-07 -3.48321e-08 0)
(-1.33291e-07 -2.38969e-08 0)
(1.53792e-08 1.6102e-08 0)
(5.10158e-08 1.3895e-07 0)
(-2.95934e-08 5.03735e-07 0)
(-4.25768e-07 6.90125e-07 0)
(-9.87296e-07 6.28508e-07 0)
(-1.51337e-06 4.92153e-07 0)
(-1.97659e-06 4.11251e-07 0)
(-2.41113e-06 4.12374e-07 0)
(-2.86806e-06 4.73036e-07 0)
(-3.38723e-06 5.6842e-07 0)
(-3.99571e-06 6.83707e-07 0)
(-4.71216e-06 8.11895e-07 0)
(-5.55087e-06 9.50128e-07 0)
(-6.52348e-06 1.09747e-06 0)
(-7.64028e-06 1.25375e-06 0)
(-8.91078e-06 1.41847e-06 0)
(-1.03436e-05 1.59093e-06 0)
(-1.19467e-05 1.77009e-06 0)
(-1.37263e-05 1.95452e-06 0)
(-1.56867e-05 2.14261e-06 0)
(-1.78301e-05 2.33221e-06 0)
(-2.01563e-05 2.52063e-06 0)
(-2.26623e-05 2.70447e-06 0)
(-2.53412e-05 2.87986e-06 0)
(-2.81821e-05 3.04246e-06 0)
(-3.11698e-05 3.18747e-06 0)
(-3.4284e-05 3.30959e-06 0)
(-3.74995e-05 3.40311e-06 0)
(-4.07854e-05 3.46212e-06 0)
(-4.41047e-05 3.48062e-06 0)
(-4.74144e-05 3.45269e-06 0)
(-5.06655e-05 3.37251e-06 0)
(-5.38041e-05 3.23463e-06 0)
(-5.67709e-05 3.03407e-06 0)
(-5.95026e-05 2.76606e-06 0)
(-6.19328e-05 2.42744e-06 0)
(-6.39919e-05 2.01685e-06 0)
(-6.56095e-05 1.5337e-06 0)
(-6.67172e-05 9.7963e-07 0)
(-6.72505e-05 3.59538e-07 0)
(-6.71485e-05 -3.19105e-07 0)
(-6.63591e-05 -1.04945e-06 0)
(-6.48427e-05 -1.81782e-06 0)
(-6.25728e-05 -2.60878e-06 0)
(-5.95401e-05 -3.40457e-06 0)
(-5.57508e-05 -4.18483e-06 0)
(-5.12326e-05 -4.93053e-06 0)
(-4.60359e-05 -5.61831e-06 0)
(-4.02305e-05 -6.22707e-06 0)
(-3.3906e-05 -6.73676e-06 0)
(-2.71688e-05 -7.12987e-06 0)
(-2.01408e-05 -7.39231e-06 0)
(-1.29546e-05 -7.51451e-06 0)
(-5.74903e-06 -7.49189e-06 0)
(1.33772e-06 -7.32493e-06 0)
(8.16712e-06 -7.01827e-06 0)
(1.46131e-05 -6.58561e-06 0)
(2.05632e-05 -6.04513e-06 0)
(2.59189e-05 -5.40599e-06 0)
(3.06058e-05 -4.69385e-06 0)
(3.45681e-05 -3.93114e-06 0)
(3.7772e-05 -3.14032e-06 0)
(4.0205e-05 -2.34323e-06 0)
(4.18743e-05 -1.56024e-06 0)
(4.28055e-05 -8.09679e-07 0)
(4.30404e-05 -1.07572e-07 0)
(4.26349e-05 5.34015e-07 0)
(4.16535e-05 1.10701e-06 0)
(4.01676e-05 1.60439e-06 0)
(3.8254e-05 2.02257e-06 0)
(3.59903e-05 2.36067e-06 0)
(3.34539e-05 2.61998e-06 0)
(3.07186e-05 2.80383e-06 0)
(2.78548e-05 2.91676e-06 0)
(2.49276e-05 2.96476e-06 0)
(2.19948e-05 2.95525e-06 0)
(1.9109e-05 2.89589e-06 0)
(1.6314e-05 2.79289e-06 0)
(1.36471e-05 2.65544e-06 0)
(1.11375e-05 2.48885e-06 0)
(8.80745e-06 2.30041e-06 0)
(6.678e-06 2.09397e-06 0)
(4.75951e-06 1.8817e-06 0)
(3.05674e-06 1.66213e-06 0)
(1.57253e-06 1.44319e-06 0)
(3.06489e-07 1.22481e-06 0)
(-7.46789e-07 1.01403e-06 0)
(-1.5956e-06 8.09841e-07 0)
(-2.24727e-06 6.14334e-07 0)
(-2.71257e-06 4.29375e-07 0)
(-3.00369e-06 2.56156e-07 0)
(-3.13344e-06 9.82218e-08 0)
(-3.11694e-06 -4.41998e-08 0)
(-2.97006e-06 -1.68788e-07 0)
(-2.70892e-06 -2.73357e-07 0)
(-2.35235e-06 -3.58926e-07 0)
(-1.91875e-06 -4.23016e-07 0)
(-1.42881e-06 -4.62655e-07 0)
(-9.12931e-07 -4.64594e-07 0)
(-4.26391e-07 -4.04903e-07 0)
(-2.92877e-08 -1.3671e-07 0)
(3.26349e-08 4.62765e-08 0)
(1.35505e-07 5.84441e-07 0)
(4.2305e-08 1.05023e-06 0)
(-3.21366e-07 1.1444e-06 0)
(-7.89165e-07 1.02698e-06 0)
(-1.29229e-06 9.25802e-07 0)
(-1.81045e-06 9.28154e-07 0)
(-2.36279e-06 1.02743e-06 0)
(-2.97831e-06 1.19479e-06 0)
(-3.68424e-06 1.40815e-06 0)
(-4.50306e-06 1.65465e-06 0)
(-5.45352e-06 1.92777e-06 0)
(-6.55156e-06 2.22421e-06 0)
(-7.81146e-06 2.54189e-06 0)
(-9.24601e-06 2.87883e-06 0)
(-1.08664e-05 3.2327e-06 0)
(-1.26827e-05 3.60086e-06 0)
(-1.47022e-05 3.98028e-06 0)
(-1.69301e-05 4.36717e-06 0)
(-1.93689e-05 4.75676e-06 0)
(-2.20184e-05 5.14332e-06 0)
(-2.48751e-05 5.5198e-06 0)
(-2.79315e-05 5.87819e-06 0)
(-3.1175e-05 6.20952e-06 0)
(-3.45883e-05 6.50384e-06 0)
(-3.81489e-05 6.7503e-06 0)
(-4.18281e-05 6.93726e-06 0)
(-4.55912e-05 7.05267e-06 0)
(-4.93961e-05 7.08426e-06 0)
(-5.3194e-05 7.01975e-06 0)
(-5.69296e-05 6.84704e-06 0)
(-6.05411e-05 6.55467e-06 0)
(-6.3961e-05 6.13226e-06 0)
(-6.71164e-05 5.57082e-06 0)
(-6.99302e-05 4.86415e-06 0)
(-7.23217e-05 4.00895e-06 0)
(-7.42097e-05 3.00516e-06 0)
(-7.55141e-05 1.85675e-06 0)
(-7.61587e-05 5.73235e-07 0)
(-7.6073e-05 -8.30054e-07 0)
(-7.51954e-05 -2.33431e-06 0)
(-7.34778e-05 -3.91304e-06 0)
(-7.08886e-05 -5.53441e-06 0)
(-6.74155e-05 -7.16147e-06 0)
(-6.30669e-05 -8.7528e-06 0)
(-5.78734e-05 -1.02667e-05 0)
(-5.18923e-05 -1.16576e-05 0)
(-4.52062e-05 -1.28812e-05 0)
(-3.79198e-05 -1.38968e-05 0)
(-3.01582e-05 -1.4669e-05 0)
(-2.20647e-05 -1.51698e-05 0)
(-1.37953e-05 -1.53809e-05 0)
(-5.5126e-06 -1.5294e-05 0)
(2.62144e-06 -1.49115e-05 0)
(1.04444e-05 -1.42467e-05 0)
(1.78087e-05 -1.33234e-05 0)
(2.45867e-05 -1.21742e-05 0)
(3.0665e-05 -1.0836e-05 0)
(3.59567e-05 -9.35309e-06 0)
(4.04005e-05 -7.77181e-06 0)
(4.39602e-05 -6.13893e-06 0)
(4.66245e-05 -4.49935e-06 0)
(4.84056e-05 -2.89451e-06 0)
(4.93366e-05 -1.36083e-06 0)
(4.94693e-05 7.06911e-08 0)
(4.88712e-05 1.37526e-06 0)
(4.76194e-05 2.53423e-06 0)
(4.57984e-05 3.53569e-06 0)
(4.34977e-05 4.37316e-06 0)
(4.0808e-05 5.04549e-06 0)
(3.78185e-05 5.55585e-06 0)
(3.46143e-05 5.91143e-06 0)
(3.12759e-05 6.12279e-06 0)
(2.78777e-05 6.20254e-06 0)
(2.44854e-05 6.16488e-06 0)
(2.11577e-05 6.02499e-06 0)
(1.79444e-05 5.79783e-06 0)
(1.48867e-05 5.49937e-06 0)
(1.20171e-05 5.14304e-06 0)
(9.35997e-06 4.74254e-06 0)
(6.94034e-06 4.31176e-06 0)
(4.76897e-06 3.86232e-06 0)
(2.84876e-06 3.4041e-06 0)
(1.18205e-06 2.94331e-06 0)
(-2.29271e-07 2.49142e-06 0)
(-1.39203e-06 2.04985e-06 0)
(-2.31981e-06 1.6244e-06 0)
(-3.02052e-06 1.21791e-06 0)
(-3.50832e-06 8.34996e-07 0)
(-3.79817e-06 4.78371e-07 0)
(-3.90701e-06 1.52285e-07 0)
(-3.85184e-06 -1.40769e-07 0)
(-3.64876e-06 -3.97767e-07 0)
(-3.31749e-06 -6.16516e-07 0)
(-2.87648e-06 -7.97246e-07 0)
(-2.3456e-06 -9.35625e-07 0)
(-1.74954e-06 -1.02064e-06 0)
(-1.12135e-06 -1.02735e-06 0)
(-5.30535e-07 -9.09675e-07 0)
(-4.52977e-08 -3.82655e-07 0)
(-6.14814e-10 -4.01511e-08 0)
(8.45595e-08 4.88645e-07 0)
(1.59406e-07 1.14093e-06 0)
(1.7958e-08 1.4447e-06 0)
(-2.83053e-07 1.45599e-06 0)
(-6.98572e-07 1.42119e-06 0)
(-1.18562e-06 1.47218e-06 0)
(-1.73735e-06 1.63061e-06 0)
(-2.36583e-06 1.87806e-06 0)
(-3.09021e-06 2.19394e-06 0)
(-3.93048e-06 2.56377e-06 0)
(-4.90539e-06 2.97905e-06 0)
(-6.03229e-06 3.43434e-06 0)
(-7.32727e-06 3.9255e-06 0)
(-8.80504e-06 4.44883e-06 0)
(-1.04784e-05 4.99997e-06 0)
(-1.23584e-05 5.57444e-06 0)
(-1.44534e-05 6.16728e-06 0)
(-1.67695e-05 6.77223e-06 0)
(-1.93101e-05 7.38154e-06 0)
(-2.20758e-05 7.98606e-06 0)
(-2.50638e-05 8.57486e-06 0)
(-2.82668e-05 9.1356e-06 0)
(-3.16729e-05 9.65444e-06 0)
(-3.5265e-05 1.0116e-05 0)
(-3.90206e-05 1.05036e-05 0)
(-4.29111e-05 1.07992e-05 0)
(-4.6901e-05 1.09842e-05 0)
(-5.09476e-05 1.10392e-05 0)
(-5.50006e-05 1.0945e-05 0)
(-5.90027e-05 1.06823e-05 0)
(-6.28896e-05 1.0233e-05 0)
(-6.65901e-05 9.5804e-06 0)
(-7.00266e-05 8.71065e-06 0)
(-7.31166e-05 7.6136e-06 0)
(-7.57731e-05 6.28342e-06 0)
(-7.79078e-05 4.71963e-06 0)
(-7.94324e-05 2.92866e-06 0)
(-8.02618e-05 9.24722e-07 0)
(-8.03168e-05 -1.26959e-06 0)
(-7.95274e-05 -3.6233e-06 0)
(-7.78367e-05 -6.09498e-06 0)
(-7.52059e-05 -8.63487e-06 0)
(-7.16169e-05 -1.11849e-05 0)
(-6.70745e-05 -1.36799e-05 0)
(-6.16089e-05 -1.60513e-05 0)
(-5.52783e-05 -1.8229e-05 0)
(-4.81703e-05 -2.01421e-05 0)
(-4.03989e-05 -2.17263e-05 0)
(-3.2101e-05 -2.29252e-05 0)
(-2.34347e-05 -2.36948e-05 0)
(-1.45726e-05 -2.40063e-05 0)
(-5.69491e-06 -2.38469e-05 0)
(3.01799e-06 -2.32212e-05 0)
(1.13871e-05 -2.21526e-05 0)
(1.92496e-05 -2.0677e-05 0)
(2.64643e-05 -1.88473e-05 0)
(3.29085e-05 -1.67257e-05 0)
(3.84883e-05 -1.4382e-05 0)
(4.31392e-05 -1.18896e-05 0)
(4.68252e-05 -9.32262e-06 0)
(4.95387e-05 -6.75166e-06 0)
(5.12976e-05 -4.24167e-06 0)
(5.21427e-05 -1.84966e-06 0)
(5.21346e-05 3.76509e-07 0)
(5.13504e-05 2.39932e-06 0)
(4.98771e-05 4.19012e-06 0)
(4.78094e-05 5.73105e-06 0)
(4.52457e-05 7.01327e-06 0)
(4.22848e-05 8.03588e-06 0)
(3.90232e-05 8.80508e-06 0)
(3.55527e-05 9.33306e-06 0)
(3.19591e-05 9.63693e-06 0)
(2.83204e-05 9.73693e-06 0)
(2.47055e-05 9.65518e-06 0)
(2.11753e-05 9.41569e-06 0)
(1.77812e-05 9.04242e-06 0)
(1.45649e-05 8.559e-06 0)
(1.15587e-05 7.98773e-06 0)
(8.78933e-06 7.34978e-06 0)
(6.27953e-06 6.66899e-06 0)
(4.0382e-06 5.95645e-06 0)
(2.06683e-06 5.23206e-06 0)
(3.71468e-07 4.50674e-06 0)
(-1.05179e-06 3.79567e-06 0)
(-2.21424e-06 3.1009e-06 0)
(-3.12488e-06 2.43416e-06 0)
(-3.79622e-06 1.79989e-06 0)
(-4.24444e-06 1.20479e-06 0)
(-4.4876e-06 6.52999e-07 0)
(-4.543e-06 1.49331e-07 0)
(-4.42938e-06 -3.02715e-07 0)
(-4.1638e-06 -6.99592e-07 0)
(-3.76579e-06 -1.04044e-06 0)
(-3.25438e-06 -1.3226e-06 0)
(-2.6485e-06 -1.54175e-06 0)
(-1.97365e-06 -1.6782e-06 0)
(-1.26558e-06 -1.68955e-06 0)
(-5.99521e-07 -1.49945e-06 0)
(-5.45938e-08 -6.73004e-07 0)
(-2.85662e-08 -3.60926e-08 0)
(-4.9365e-08 4.17825e-07 0)
(4.91046e-08 1.11632e-06 0)
(4.20772e-08 1.57405e-06 0)
(-1.01793e-07 1.73892e-06 0)
(-3.84181e-07 1.81965e-06 0)
(-7.73129e-07 1.9598e-06 0)
(-1.25502e-06 2.20191e-06 0)
(-1.83234e-06 2.543e-06 0)
(-2.51702e-06 2.96835e-06 0)
(-3.32458e-06 3.46587e-06 0)
(-4.27167e-06 4.02689e-06 0)
(-5.37535e-06 4.64474e-06 0)
(-6.65208e-06 5.31393e-06 0)
(-8.11752e-06 6.02911e-06 0)
(-9.78548e-06 6.78436e-06 0)
(-1.16676e-05 7.57344e-06 0)
(-1.37733e-05 8.38924e-06 0)
(-1.61104e-05 9.22289e-06 0)
(-1.86836e-05 1.00636e-05 0)
(-2.14951e-05 1.08989e-05 0)
(-2.45436e-05 1.17138e-05 0)
(-2.78231e-05 1.24917e-05 0)
(-3.13232e-05 1.32139e-05 0)
(-3.50282e-05 1.38595e-05 0)
(-3.89171e-05 1.44057e-05 0)
(-4.29622e-05 1.4828e-05 0)
(-4.71286e-05 1.51007e-05 0)
(-5.13739e-05 1.51972e-05 0)
(-5.56477e-05 1.50904e-05 0)
(-5.98919e-05 1.47536e-05 0)
(-6.40404e-05 1.41609e-05 0)
(-6.80192e-05 1.32888e-05 0)
(-7.17465e-05 1.21172e-05 0)
(-7.51346e-05 1.06309e-05 0)
(-7.80904e-05 8.82036e-06 0)
(-8.05176e-05 6.6838e-06 0)
(-8.23188e-05 4.22887e-06 0)
(-8.33991e-05 1.47398e-06 0)
(-8.36686e-05 -1.55056e-06 0)
(-8.30451e-05 -4.80319e-06 0)
(-8.14606e-05 -8.22673e-06 0)
(-7.88661e-05 -1.1752e-05 0)
(-7.52343e-05 -1.5298e-05 0)
(-7.05637e-05 -1.87733e-05 0)
(-6.48812e-05 -2.20806e-05 0)
(-5.82446e-05 -2.51206e-05 0)
(-5.07457e-05 -2.77926e-05 0)
(-4.25074e-05 -3.00054e-05 0)
(-3.36795e-05 -3.16783e-05 0)
(-2.44377e-05 -3.27481e-05 0)
(-1.49743e-05 -3.31736e-05 0)
(-5.49022e-06 -3.29368e-05 0)
(3.81108e-06 -3.20445e-05 0)
(1.27313e-05 -3.05308e-05 0)
(2.10892e-05 -2.84479e-05 0)
(2.87268e-05 -2.58719e-05 0)
(3.55108e-05 -2.28925e-05 0)
(4.13408e-05 -1.96092e-05 0)
(4.61494e-05 -1.61261e-05 0)
(4.99024e-05 -1.2548e-05 0)
(5.25976e-05 -8.97383e-06 0)
(5.42612e-05 -5.49428e-06 0)
(5.49445e-05 -2.18884e-06 0)
(5.47203e-05 8.76265e-07 0)
(5.36777e-05 3.6506e-06 0)
(5.19156e-05 6.09651e-06 0)
(4.95408e-05 8.19067e-06 0)
(4.66623e-05 9.92265e-06 0)
(4.33883e-05 1.1293e-05 0)
(3.98234e-05 1.23121e-05 0)
(3.60658e-05 1.29988e-05 0)
(3.22062e-05 1.33772e-05 0)
(2.8326e-05 1.34763e-05 0)
(2.44966e-05 1.33276e-05 0)
(2.07802e-05 1.29648e-05 0)
(1.72279e-05 1.24214e-05 0)
(1.38811e-05 1.17299e-05 0)
(1.07712e-05 1.09207e-05 0)
(7.92587e-06 1.00257e-05 0)
(5.36129e-06 9.07216e-06 0)
(3.08541e-06 8.07869e-06 0)
(1.10201e-06 7.07101e-06 0)
(-5.90213e-07 6.06709e-06 0)
(-1.99738e-06 5.07935e-06 0)
(-3.12971e-06 4.12164e-06 0)
(-3.99953e-06 3.20416e-06 0)
(-4.62197e-06 2.33523e-06 0)
(-5.01426e-06 1.52203e-06 0)
(-5.19586e-06 7.70469e-07 0)
(-5.1861e-06 8.62791e-08 0)
(-5.00385e-06 -5.27889e-07 0)
(-4.66748e-06 -1.06714e-06 0)
(-4.19735e-06 -1.5317e-06 0)
(-3.61205e-06 -1.91774e-06 0)
(-2.93169e-06 -2.21833e-06 0)
(-2.18072e-06 -2.4072e-06 0)
(-1.39676e-06 -2.42242e-06 0)
(-6.60476e-07 -2.1503e-06 0)
(-6.25637e-08 -9.95647e-07 0)
(-3.94167e-08 3.64584e-08 0)
(-1.30856e-07 4.08367e-07 0)
(-5.15986e-08 1.05581e-06 0)
(1.02666e-08 1.58695e-06 0)
(-1.719e-08 1.88105e-06 0)
(-1.71997e-07 2.08836e-06 0)
(-4.44296e-07 2.33991e-06 0)
(-8.25443e-07 2.68685e-06 0)
(-1.31643e-06 3.13686e-06 0)
(-1.92626e-06 3.68248e-06 0)
(-2.66691e-06 4.3155e-06 0)
(-3.5537e-06 5.02859e-06 0)
(-4.60294e-06 5.81455e-06 0)
(-5.83102e-06 6.66717e-06 0)
(-7.25422e-06 7.58016e-06 0)
(-8.887e-06 8.54661e-06 0)
(-1.07419e-05 9.55876e-06 0)
(-1.28301e-05 1.06074e-05 0)
(-1.51612e-05 1.1681e-05 0)
(-1.7742e-05 1.27661e-05 0)
(-2.05767e-05 1.38468e-05 0)
(-2.36663e-05 1.49044e-05 0)
(-2.70069e-05 1.59181e-05 0)
(-3.05903e-05 1.68641e-05 0)
(-3.44033e-05 1.77158e-05 0)
(-3.84266e-05 1.84443e-05 0)
(-4.26343e-05 1.90183e-05 0)
(-4.69929e-05 1.94047e-05 0)
(-5.14608e-05 1.95689e-05 0)
(-5.59879e-05 1.94756e-05 0)
(-6.05153e-05 1.90893e-05 0)
(-6.49752e-05 1.83757e-05 0)
(-6.92904e-05 1.73033e-05 0)
(-7.33746e-05 1.58441e-05 0)
(-7.7134e-05 1.39763e-05 0)
(-8.04677e-05 1.16857e-05 0)
(-8.32697e-05 8.96768e-06 0)
(-8.54307e-05 5.82934e-06 0)
(-8.68425e-05 2.29197e-06 0)
(-8.74021e-05 -1.60671e-06 0)
(-8.7012e-05 -5.81565e-06 0)
(-8.55876e-05 -1.02611e-05 0)
(-8.30658e-05 -1.48533e-05 0)
(-7.94065e-05 -1.94861e-05 0)
(-7.45985e-05 -2.40393e-05 0)
(-6.86639e-05 -2.8383e-05 0)
(-6.16582e-05 -3.23832e-05 0)
(-5.36777e-05 -3.59059e-05 0)
(-4.48575e-05 -3.88259e-05 0)
(-3.53635e-05 -4.10353e-05 0)
(-2.53943e-05 -4.2447e-05 0)
(-1.51686e-05 -4.30047e-05 0)
(-4.91584e-06 -4.26838e-05 0)
(5.13039e-06 -4.14934e-05 0)
(1.47446e-05 -3.94802e-05 0)
(2.37211e-05 -3.67172e-05 0)
(3.18805e-05 -3.33068e-05 0)
(3.90758e-05 -2.93713e-05 0)
(4.51984e-05 -2.50449e-05 0)
(5.01779e-05 -2.0468e-05 0)
(5.39836e-05 -1.57798e-05 0)
(5.66217e-05 -1.1112e-05 0)
(5.81298e-05 -6.58377e-06 0)
(5.85733e-05 -2.29874e-06 0)
(5.80422e-05 1.6584e-06 0)
(5.66424e-05 5.22268e-06 0)
(5.44888e-05 8.34816e-06 0)
(5.17035e-05 1.10074e-05 0)
(4.84095e-05 1.31894e-05 0)
(4.47269e-05 1.48983e-05 0)
(4.07704e-05 1.61504e-05 0)
(3.66461e-05 1.69721e-05 0)
(3.24504e-05 1.73971e-05 0)
(2.82689e-05 1.74642e-05 0)
(2.41755e-05 1.72164e-05 0)
(2.02336e-05 1.66976e-05 0)
(1.64935e-05 1.59517e-05 0)
(1.29943e-05 1.50212e-05 0)
(9.76826e-06 1.39456e-05 0)
(6.83982e-06 1.27662e-05 0)
(4.21863e-06 1.15141e-05 0)
(1.91249e-06 1.02198e-05 0)
(-7.72574e-08 8.91024e-06 0)
(-1.75739e-06 7.60861e-06 0)
(-3.13558e-06 6.33281e-06 0)
(-4.22534e-06 5.10057e-06 0)
(-5.04174e-06 3.92303e-06 0)
(-5.60123e-06 2.81178e-06 0)
(-5.92356e-06 1.7748e-06 0)
(-6.02925e-06 8.1945e-07 0)
(-5.93941e-06 -4.94021e-08 0)
(-5.67372e-06 -8.27251e-07 0)
(-5.25194e-06 -1.51171e-06 0)
(-4.69544e-06 -2.10092e-06 0)
(-4.02257e-06 -2.59192e-06 0)
(-3.25469e-06 -2.97491e-06 0)
(-2.41655e-06 -3.21506e-06 0)
(-1.54652e-06 -3.23072e-06 0)
(-7.29512e-07 -2.86522e-06 0)
(-7.12827e-08 -1.3526e-06 0)
(-3.52282e-08 1.27866e-07 0)
(-1.31428e-07 4.27243e-07 0)
(-5.04558e-08 9.80605e-07 0)
(6.15207e-08 1.52932e-06 0)
(1.23835e-07 1.91766e-06 0)
(8.02969e-08 2.2412e-06 0)
(-7.63786e-08 2.60829e-06 0)
(-3.47013e-07 3.07021e-06 0)
(-7.35441e-07 3.6385e-06 0)
(-1.25011e-06 4.31355e-06 0)
(-1.90207e-06 5.08944e-06 0)
(-2.70669e-06 5.96027e-06 0)
(-3.6805e-06 6.92038e-06 0)
(-4.83958e-06 7.96289e-06 0)
(-6.20066e-06 9.08096e-06 0)
(-7.77924e-06 1.02672e-05 0)
(-9.58941e-06 1.15124e-05 0)
(-1.16444e-05 1.28055e-05 0)
(-1.39562e-05 1.41329e-05 0)
(-1.65339e-05 1.54783e-05 0)
(-1.93845e-05 1.68228e-05 0)
(-2.25117e-05 1.81441e-05 0)
(-2.59146e-05 1.94171e-05 0)
(-2.9588e-05 2.06129e-05 0)
(-3.35216e-05 2.16993e-05 0)
(-3.76988e-05 2.26409e-05 0)
(-4.20962e-05 2.33993e-05 0)
(-4.6682e-05 2.39335e-05 0)
(-5.14163e-05 2.42002e-05 0)
(-5.62496e-05 2.41549e-05 0)
(-6.11225e-05 2.37526e-05 0)
(-6.59652e-05 2.29493e-05 0)
(-7.06972e-05 2.17034e-05 0)
(-7.5227e-05 1.99778e-05 0)
(-7.94532e-05 1.7742e-05 0)
(-8.32652e-05 1.4975e-05 0)
(-8.65453e-05 1.16671e-05 0)
(-8.91701e-05 7.82353e-06 0)
(-9.10139e-05 3.46709e-06 0)
(-9.1957e-05 -1.35976e-06 0)
(-9.18811e-05 -6.59769e-06 0)
(-9.06793e-05 -1.21543e-05 0)
(-8.82703e-05 -1.79185e-05 0)
(-8.45962e-05 -2.37569e-05 0)
(-7.96318e-05 -2.95165e-05 0)
(-7.33904e-05 -3.50293e-05 0)
(-6.59256e-05 -4.01202e-05 0)
(-5.73379e-05 -4.46161e-05 0)
(-4.77768e-05 -4.83501e-05 0)
(-3.74305e-05 -5.11791e-05 0)
(-2.65263e-05 -5.2989e-05 0)
(-1.53191e-05 -5.37032e-05 0)
(-4.07588e-06 -5.32886e-05 0)
(6.92881e-06 -5.17579e-05 0)
(1.74325e-05 -4.9172e-05 0)
(2.71979e-05 -4.56294e-05 0)
(3.60177e-05 -4.12652e-05 0)
(4.37267e-05 -3.6241e-05 0)
(5.02062e-05 -3.07331e-05 0)
(5.53838e-05 -2.49252e-05 0)
(5.92341e-05 -1.89967e-05 0)
(6.17747e-05 -1.31171e-05 0)
(6.306e-05 -7.43817e-06 0)
(6.31758e-05 -2.08895e-06 0)
(6.22336e-05 2.8253e-06 0)
(6.03613e-05 7.22619e-06 0)
(5.76954e-05 1.10597e-05 0)
(5.43779e-05 1.42958e-05 0)
(5.05494e-05 1.69251e-05 0)
(4.63451e-05 1.89572e-05 0)
(4.18922e-05 2.04169e-05 0)
(3.73061e-05 2.13406e-05 0)
(3.26903e-05 2.17736e-05 0)
(2.81352e-05 2.17674e-05 0)
(2.37174e-05 2.13771e-05 0)
(1.95001e-05 2.06593e-05 0)
(1.5533e-05 1.96686e-05 0)
(1.18532e-05 1.84581e-05 0)
(8.4913e-06 1.70801e-05 0)
(5.4666e-06 1.55804e-05 0)
(2.78461e-06 1.4e-05 0)
(4.4919e-07 1.23783e-05 0)
(-1.54282e-06 1.07434e-05 0)
(-3.20166e-06 9.12504e-06 0)
(-4.53892e-06 7.54546e-06 0)
(-5.57155e-06 6.02454e-06 0)
(-6.31822e-06 4.57671e-06 0)
(-6.79752e-06 3.21543e-06 0)
(-7.0313e-06 1.94757e-06 0)
(-7.04245e-06 7.82599e-07 0)
(-6.85332e-06 -2.74965e-07 0)
(-6.48525e-06 -1.2199e-06 0)
(-5.95942e-06 -2.05101e-06 0)
(-5.29729e-06 -2.76604e-06 0)
(-4.51874e-06 -3.36202e-06 0)
(-3.64515e-06 -3.82742e-06 0)
(-2.70171e-06 -4.11838e-06 0)
(-1.72824e-06 -4.13054e-06 0)
(-8.14804e-07 -3.65834e-06 0)
(-8.28783e-08 -1.75102e-06 0)
(-2.17983e-08 1.95403e-07 0)
(-7.11207e-08 4.23288e-07 0)
(4.87869e-08 8.69985e-07 0)
(2.20353e-07 1.4068e-06 0)
(3.67078e-07 1.86095e-06 0)
(4.28132e-07 2.28523e-06 0)
(3.85936e-07 2.76363e-06 0)
(2.30503e-07 3.3417e-06 0)
(-4.46639e-08 4.03449e-06 0)
(-4.49326e-07 4.84477e-06 0)
(-9.97252e-07 5.76952e-06 0)
(-1.70263e-06 6.80386e-06 0)
(-2.58277e-06 7.94369e-06 0)
(-3.65535e-06 9.18333e-06 0)
(-4.93729e-06 1.05149e-05 0)
(-6.44541e-06 1.19307e-05 0)
(-8.19599e-06 1.34206e-05 0)
(-1.02048e-05 1.49719e-05 0)
(-1.24864e-05 1.65691e-05 0)
(-1.50528e-05 1.81939e-05 0)
(-1.79145e-05 1.98242e-05 0)
(-2.10784e-05 2.14345e-05 0)
(-2.45472e-05 2.29953e-05 0)
(-2.83197e-05 2.44729e-05 0)
(-3.23893e-05 2.58292e-05 0)
(-3.67429e-05 2.70221e-05 0)
(-4.13602e-05 2.80058e-05 0)
(-4.62123e-05 2.87305e-05 0)
(-5.12614e-05 2.91438e-05 0)
(-5.64592e-05 2.91909e-05 0)
(-6.17463e-05 2.88159e-05 0)
(-6.70512e-05 2.79634e-05 0)
(-7.22898e-05 2.65803e-05 0)
(-7.73652e-05 2.46179e-05 0)
(-8.21672e-05 2.20349e-05 0)
(-8.65741e-05 1.88002e-05 0)
(-9.04533e-05 1.48965e-05 0)
(-9.36636e-05 1.03239e-05 0)
(-9.60592e-05 5.10317e-06 0)
(-9.75006e-05 -7.20977e-07 0)
(-9.78403e-05 -7.0711e-06 0)
(-9.69421e-05 -1.38479e-05 0)
(-9.47017e-05 -2.0916e-05 0)
(-9.10371e-05 -2.81109e-05 0)
(-8.59028e-05 -3.52414e-05 0)
(-7.92988e-05 -4.20953e-05 0)
(-7.1275e-05 -4.84484e-05 0)
(-6.19362e-05 -5.4078e-05 0)
(-5.14474e-05 -5.87675e-05 0)
(-4.00275e-05 -6.23277e-05 0)
(-2.79415e-05 -6.46103e-05 0)
(-1.54895e-05 -6.55132e-05 0)
(-2.98983e-06 -6.4992e-05 0)
(9.22976e-06 -6.30648e-05 0)
(2.08577e-05 -5.98082e-05 0)
(3.16142e-05 -5.53542e-05 0)
(4.1257e-05 -4.98787e-05 0)
(4.95975e-05 -4.35922e-05 0)
(5.65052e-05 -3.6723e-05 0)
(6.19067e-05 -2.95065e-05 0)
(6.57853e-05 -2.21711e-05 0)
(6.81749e-05 -1.49299e-05 0)
(6.91536e-05 -7.97172e-06 0)
(6.88331e-05 -1.45533e-06 0)
(6.73543e-05 4.49609e-06 0)
(6.48743e-05 9.78842e-06 0)
(6.15564e-05 1.43613e-05 0)
(5.75672e-05 1.81842e-05 0)
(5.30696e-05 2.12526e-05 0)
(4.82175e-05 2.35845e-05 0)
(4.31528e-05 2.52161e-05 0)
(3.80019e-05 2.61972e-05 0)
(3.28761e-05 2.65879e-05 0)
(2.78709e-05 2.64545e-05 0)
(2.30657e-05 2.58663e-05 0)
(1.85229e-05 2.48941e-05 0)
(1.42894e-05 2.36056e-05 0)
(1.04023e-05 2.20644e-05 0)
(6.88637e-06 2.03395e-05 0)
(3.75486e-06 1.84761e-05 0)
(1.01117e-06 1.65327e-05 0)
(-1.3499e-06 1.45498e-05 0)
(-3.33654e-06 1.25625e-05 0)
(-4.96133e-06 1.06041e-05 0)
(-6.24185e-06 8.70162e-06 0)
(-7.19945e-06 6.87641e-06 0)
(-7.85565e-06 5.14562e-06 0)
(-8.23452e-06 3.52343e-06 0)
(-8.35996e-06 2.01811e-06 0)
(-8.2549e-06 6.38449e-07 0)
(-7.94473e-06 -6.10618e-07 0)
(-7.45249e-06 -1.72578e-06 0)
(-6.80126e-06 -2.7046e-06 0)
(-6.01303e-06 -3.54585e-06 0)
(-5.10873e-06 -4.24758e-06 0)
(-4.1106e-06 -4.79534e-06 0)
(-3.04354e-06 -5.13651e-06 0)
(-1.94793e-06 -5.14125e-06 0)
(-9.19513e-07 -4.54812e-06 0)
(-9.74918e-08 -2.20102e-06 0)
(-3.74335e-09 2.16037e-07 0)
(2.45776e-08 3.57026e-07 0)
(2.16689e-07 6.95026e-07 0)
(4.6881e-07 1.20694e-06 0)
(7.09593e-07 1.70899e-06 0)
(8.79946e-07 2.21979e-06 0)
(9.55948e-07 2.8024e-06 0)
(9.24054e-07 3.49518e-06 0)
(7.73396e-07 4.31425e-06 0)
(4.91223e-07 5.2623e-06 0)
(6.28416e-08 6.3393e-06 0)
(-5.27289e-07 7.54271e-06 0)
(-1.29635e-06 8.86792e-06 0)
(-2.26417e-06 1.03117e-05 0)
(-3.44962e-06 1.18655e-05 0)
(-4.87052e-06 1.35216e-05 0)
(-6.54578e-06 1.52688e-05 0)
(-8.49403e-06 1.70938e-05 0)
(-1.07329e-05 1.89795e-05 0)
(-1.32781e-05 2.09055e-05 0)
(-1.61439e-05 2.28473e-05 0)
(-1.93413e-05 2.47762e-05 0)
(-2.28774e-05 2.66586e-05 0)
(-2.67559e-05 2.84557e-05 0)
(-3.09746e-05 3.01239e-05 0)
(-3.5525e-05 3.1614e-05 0)
(-4.03909e-05 3.28722e-05 0)
(-4.55474e-05 3.38398e-05 0)
(-5.09597e-05 3.4454e-05 0)
(-5.65815e-05 3.46487e-05 0)
(-6.23541e-05 3.43557e-05 0)
(-6.82051e-05 3.35062e-05 0)
(-7.40472e-05 3.20332e-05 0)
(-7.97771e-05 2.9874e-05 0)
(-8.52758e-05 2.69731e-05 0)
(-9.04086e-05 2.32866e-05 0)
(-9.50265e-05 1.87859e-05 0)
(-9.89683e-05 1.34619e-05 0)
(-0.000102064 7.33018e-06 0)
(-0.000104136 4.36669e-07 0)
(-0.000105013 -7.1297e-06 0)
(-0.000104529 -1.52607e-05 0)
(-0.000102537 -2.37955e-05 0)
(-9.89255e-05 -3.2535e-05 0)
(-9.36201e-05 -4.12444e-05 0)
(-8.66014e-05 -4.96591e-05 0)
(-7.79124e-05 -5.74954e-05 0)
(-6.76608e-05 -6.44669e-05 0)
(-5.60301e-05 -7.02958e-05 0)
(-4.32766e-05 -7.47357e-05 0)
(-2.97147e-05 -7.75896e-05 0)
(-1.57035e-05 -7.87238e-05 0)
(-1.6298e-06 -7.80797e-05 0)
(1.21107e-05 -7.56806e-05 0)
(2.51413e-05 -7.16252e-05 0)
(3.71258e-05 -6.60875e-05 0)
(4.77783e-05 -5.92968e-05 0)
(5.68812e-05 -5.15242e-05 0)
(6.42908e-05 -4.30632e-05 0)
(6.99348e-05 -3.4213e-05 0)
(7.38098e-05 -2.52614e-05 0)
(7.59734e-05 -1.64723e-05 0)
(7.65341e-05 -8.07671e-06 0)
(7.56431e-05 -2.67172e-07 0)
(7.34769e-05 6.81423e-06 0)
(7.02261e-05 1.30593e-05 0)
(6.60909e-05 1.84034e-05 0)
(6.1269e-05 2.28188e-05 0)
(5.59496e-05 2.63099e-05 0)
(5.03085e-05 2.8907e-05 0)
(4.4505e-05 3.06618e-05 0)
(3.86781e-05 3.16416e-05 0)
(3.29477e-05 3.19248e-05 0)
(2.74137e-05 3.15955e-05 0)
(2.21571e-05 3.07403e-05 0)
(1.72394e-05 2.94456e-05 0)
(1.27031e-05 2.7793e-05 0)
(8.58678e-06 2.58624e-05 0)
(4.90248e-06 2.37327e-05 0)
(1.65919e-06 2.14605e-05 0)
(-1.14239e-06 1.91093e-05 0)
(-3.52169e-06 1.6726e-05 0)
(-5.48928e-06 1.43543e-05 0)
(-7.06328e-06 1.20295e-05 0)
(-8.26719e-06 9.78214e-06 0)
(-9.12804e-06 7.63481e-06 0)
(-9.67155e-06 5.60776e-06 0)
(-9.92524e-06 3.71385e-06 0)
(-9.91639e-06 1.9638e-06 0)
(-9.67124e-06 3.64622e-07 0)
(-9.21758e-06 -1.07932e-06 0)
(-8.57936e-06 -2.36583e-06 0)
(-7.78032e-06 -3.49367e-06 0)
(-6.8454e-06 -4.46168e-06 0)
(-5.79578e-06 -5.26842e-06 0)
(-4.65299e-06 -5.89789e-06 0)
(-3.44246e-06 -6.28762e-06 0)
(-2.20561e-06 -6.28086e-06 0)
(-1.04385e-06 -5.55141e-06 0)
(-1.15006e-07 -2.71361e-06 0)
(1.5941e-08 1.74554e-07 0)
(1.4016e-07 1.99752e-07 0)
(4.31946e-07 4.28443e-07 0)
(7.87848e-07 9.09751e-07 0)
(1.13826e-06 1.44947e-06 0)
(1.4293e-06 2.03625e-06 0)
(1.6345e-06 2.71586e-06 0)
(1.73684e-06 3.52072e-06 0)
(1.72247e-06 4.46463e-06 0)
(1.57687e-06 5.55212e-06 0)
(1.28444e-06 6.7842e-06 0)
(8.27214e-07 8.15993e-06 0)
(1.87385e-07 9.67604e-06 0)
(-6.56671e-07 1.13299e-05 0)
(-1.72641e-06 1.31153e-05 0)
(-3.04116e-06 1.5022e-05 0)
(-4.6229e-06 1.70402e-05 0)
(-6.49336e-06 1.91561e-05 0)
(-8.67399e-06 2.13512e-05 0)
(-1.11845e-05 2.36031e-05 0)
(-1.40435e-05 2.58855e-05 0)
(-1.7267e-05 2.81667e-05 0)
(-2.08677e-05 3.04092e-05 0)
(-2.48547e-05 3.25698e-05 0)
(-2.92313e-05 3.45986e-05 0)
(-3.39949e-05 3.64397e-05 0)
(-3.91348e-05 3.8031e-05 0)
(-4.4631e-05 3.93039e-05 0)
(-5.0453e-05 4.01846e-05 0)
(-5.6558e-05 4.05945e-05 0)
(-6.28892e-05 4.04511e-05 0)
(-6.9374e-05 3.96704e-05 0)
(-7.59225e-05 3.81689e-05 0)
(-8.24258e-05 3.58666e-05 0)
(-8.87551e-05 3.26904e-05 0)
(-9.47617e-05 2.85789e-05 0)
(-0.000100278 2.34879e-05 0)
(-0.00010512 1.73948e-05 0)
(-0.000109084 1.03065e-05 0)
(-0.00011196 2.26679e-06 0)
(-0.000113537 -6.63924e-06 0)
(-0.000113607 -1.62843e-05 0)
(-0.000111975 -2.64826e-05 0)
(-0.000108485 -3.69982e-05 0)
(-0.000103026 -4.75462e-05 0)
(-9.55486e-05 -5.77993e-05 0)
(-8.60821e-05 -6.74007e-05 0)
(-7.47363e-05 -7.59831e-05 0)
(-6.17158e-05 -8.31917e-05 0)
(-4.73208e-05 -8.87039e-05 0)
(-3.19291e-05 -9.22596e-05 0)
(-1.5979e-05 -9.3682e-05 0)
(5.41084e-08 -9.28942e-05 0)
(1.5685e-05 -8.99245e-05 0)
(3.04514e-05 -8.49039e-05 0)
(4.39432e-05 -7.80592e-05 0)
(5.58209e-05 -6.96893e-05 0)
(6.58316e-05 -6.01435e-05 0)
(7.38167e-05 -4.9798e-05 0)
(7.97089e-05 -3.90312e-05 0)
(8.35264e-05 -2.82026e-05 0)
(8.53599e-05 -1.76373e-05 0)
(8.5359e-05 -7.61389e-06 0)
(8.37242e-05 1.6385e-06 0)
(8.06807e-05 9.95407e-06 0)
(7.64634e-05 1.72171e-05 0)
(7.13158e-05 2.33618e-05 0)
(6.54736e-05 2.83676e-05 0)
(5.91577e-05 3.22526e-05 0)
(5.25695e-05 3.50654e-05 0)
(4.58874e-05 3.6878e-05 0)
(3.92649e-05 3.778e-05 0)
(3.283e-05 3.78726e-05 0)
(2.66866e-05 3.72614e-05 0)
(2.0916e-05 3.60537e-05 0)
(1.55758e-05 3.43527e-05 0)
(1.07063e-05 3.22583e-05 0)
(6.34197e-06 2.98716e-05 0)
(2.48446e-06 2.72677e-05 0)
(-8.68531e-07 2.45315e-05 0)
(-3.72327e-06 2.17199e-05 0)
(-6.10483e-06 1.88933e-05 0)
(-8.03291e-06 1.60999e-05 0)
(-9.53332e-06 1.33792e-05 0)
(-1.06364e-05 1.07631e-05 0)
(-1.13736e-05 8.27554e-06 0)
(-1.17764e-05 5.93749e-06 0)
(-1.18782e-05 3.76242e-06 0)
(-1.17089e-05 1.76095e-06 0)
(-1.12978e-05 -6.30984e-08 0)
(-1.06749e-05 -1.70528e-06 0)
(-9.86671e-06 -3.16418e-06 0)
(-8.8978e-06 -4.44021e-06 0)
(-7.79356e-06 -5.5343e-06 0)
(-6.57718e-06 -6.44429e-06 0)
(-5.27025e-06 -7.15348e-06 0)
(-3.89741e-06 -7.58989e-06 0)
(-2.50093e-06 -7.5683e-06 0)
(-1.18781e-06 -6.68613e-06 0)
(-1.35636e-07 -3.30049e-06 0)
(3.71452e-08 6.37883e-08 0)
(2.69757e-07 -6.60417e-08 0)
(6.81463e-07 4.87106e-08 0)
(1.16266e-06 4.96163e-07 0)
(1.6417e-06 1.06606e-06 0)
(2.06827e-06 1.72123e-06 0)
(2.41623e-06 2.4917e-06 0)
(2.66678e-06 3.40394e-06 0)
(2.80365e-06 4.47078e-06 0)
(2.81077e-06 5.69761e-06 0)